 &FCI NORB=22 ,NELEC=22 ,MS2=2,
  ORBSYM=5,6,5,6,7,8,5,7,6,8,7,5,6,8,5,7,6,5,8,7,8,7,
  ISYM=1,
 &END
  2.016248217000e-01    1  1  1  1
  5.938806225974e-02    2  1  2  1
  1.615658104910e-01    2  2  1  1
  1.700666538847e-01    2  2  2  2
 -3.563662600763e-02    3  1  1  1
  8.126852823678e-03    3  1  2  2
  3.949422392391e-02    3  1  3  1
  4.112679043944e-02    3  2  2  1
  5.546305798408e-02    3  2  3  2
  1.576810121811e-01    3  3  1  1
  1.567702121591e-01    3  3  2  2
 -9.948386341337e-04    3  3  3  1
  1.600704379530e-01    3  3  3  3
 -2.362918858459e-02    4  1  2  1
  8.430364673319e-03    4  1  3  2
  3.227403608375e-02    4  1  4  1
 -3.813780650032e-02    4  2  1  1
 -6.681675630738e-03    4  2  2  2
  2.775167077710e-02    4  2  3  1
  1.867833014460e-03    4  2  3  3
  3.500949914694e-02    4  2  4  2
  4.087228365527e-02    4  3  2  1
  3.982754871885e-02    4  3  3  2
 -6.657130685071e-03    4  3  4  1
  5.049400434946e-02    4  3  4  3
  1.643448820633e-01    4  4  1  1
  1.524572900987e-01    4  4  2  2
 -1.115448305677e-02    4  4  3  1
  1.558746723478e-01    4  4  3  3
 -7.276806006815e-03    4  4  4  2
  1.631979755197e-01    4  4  4  4
  4.138343269947e-02    5  1  5  1
  2.007208744685e-02    5  2  5  2
 -1.327257579978e-02    5  3  5  1
  1.652406732053e-02    5  3  5  3
 -1.101831423396e-02    5  4  5  2
  1.600609202169e-02    5  4  5  4
  1.967284796791e-01    5  5  1  1
  1.567634412234e-01    5  5  2  2
 -3.536584930483e-02    5  5  3  1
  1.527780880973e-01    5  5  3  3
 -3.756149974946e-02    5  5  4  2
  1.592959195666e-01    5  5  4  4
  1.973048600888e-01    5  5  5  5
  2.068498936708e-02    6  1  5  2
 -1.116518384217e-02    6  1  5  4
  2.132926114042e-02    6  1  6  1
  2.684123576453e-02    6  2  5  1
  5.642710436871e-03    6  2  5  3
  3.403789443849e-02    6  2  6  2
  1.071448947975e-02    6  3  5  2
  5.620462230606e-03    6  3  5  4
  1.125857593731e-02    6  3  6  1
  1.913234552805e-02    6  3  6  3
 -1.330622534960e-02    6  4  5  1
  1.014104003731e-02    6  4  5  3
 -1.301508891737e-03    6  4  6  2
  1.634916843932e-02    6  4  6  4
  5.557211832412e-02    6  5  2  1
  3.736649986285e-02    6  5  3  2
 -2.289343899150e-02    6  5  4  1
  3.746774842494e-02    6  5  4  3
  5.524453930606e-02    6  5  6  5
  1.589437907743e-01    6  6  1  1
  1.649278001568e-01    6  6  2  2
  5.867816723234e-03    6  6  3  1
  1.518905657887e-01    6  6  3  3
 -8.266533305884e-03    6  6  4  2
  1.496526433779e-01    6  6  4  4
  1.577707231682e-01    6  6  5  5
  1.654135651284e-01    6  6  6  6
  1.823972031887e-03    7  1  1  1
 -1.494083595518e-02    7  1  2  2
 -1.578018094052e-02    7  1  3  1
  2.301325993680e-03    7  1  3  3
  3.020932549913e-03    7  1  4  2
  5.828028371809e-03    7  1  4  4
  1.907066891376e-03    7  1  5  5
 -1.360998917962e-02    7  1  6  6
  1.940087160494e-02    7  1  7  1
 -2.072467519553e-02    7  2  2  1
 -6.499884844539e-03    7  2  3  2
  1.448093883096e-02    7  2  4  1
  8.292745507500e-03    7  2  4  3
 -1.935504004760e-02    7  2  6  5
  3.096676017871e-02    7  2  7  2
 -3.674283075453e-02    7  3  1  1
 -1.330149300885e-02    7  3  2  2
  2.020197020624e-02    7  3  3  1
 -3.111896287453e-03    7  3  3  3
  3.002277763628e-02    7  3  4  2
 -1.235519860841e-03    7  3  4  4
 -3.540960782132e-02    7  3  5  5
 -1.239178738759e-02    7  3  6  6
  7.632182244176e-03    7  3  7  1
  3.630202336778e-02    7  3  7  3
  3.071153776109e-02    7  4  2  1
  4.271409262145e-02    7  4  3  2
  7.366542170832e-03    7  4  4  1
  3.900309082364e-02    7  4  4  3
  2.898256418349e-02    7  4  6  5
  6.215233032899e-03    7  4  7  2
  4.394397871921e-02    7  4  7  4
  1.224107188513e-03    7  5  5  1
 -7.622779576152e-03    7  5  5  3
 -7.122776099853e-03    7  5  6  2
  3.547133176461e-03    7  5  6  4
  1.036972482432e-02    7  5  7  5
 -8.532062638828e-03    7  6  5  2
  7.041289752106e-03    7  6  5  4
 -8.668344495328e-03    7  6  6  1
 -1.032530430575e-03    7  6  6  3
  1.261423037779e-02    7  6  7  6
  1.493184984601e-01    7  7  1  1
  1.608322029983e-01    7  7  2  2
  1.044086448123e-02    7  7  3  1
  1.568196916055e-01    7  7  3  3
  5.381856258834e-03    7  7  4  2
  1.533494762239e-01    7  7  4  4
  1.445599571503e-01    7  7  5  5
  1.526353040803e-01    7  7  6  6
 -6.543282932959e-03    7  7  7  1
  1.693027086635e-03    7  7  7  3
  1.660516562352e-01    7  7  7  7
 -1.128750750594e-02    8  1  5  1
  1.602413228746e-02    8  1  5  3
  7.176077180847e-03    8  1  6  2
  1.030235397856e-02    8  1  6  4
 -6.983051124313e-03    8  1  7  5
  1.573481791197e-02    8  1  8  1
  1.136542552936e-02    8  2  5  2
  5.639277295390e-03    8  2  5  4
  1.195481311138e-02    8  2  6  1
  1.999885945086e-02    8  2  6  3
 -4.516271775907e-04    8  2  7  6
  2.100099933417e-02    8  2  8  2
  2.429969461543e-02    8  3  5  1
  1.796316012321e-03    8  3  5  3
  2.752301839133e-02    8  3  6  2
  6.938176104692e-03    8  3  6  4
  3.294317817158e-03    8  3  7  5
  3.951122806426e-03    8  3  8  1
  3.302379783812e-02    8  3  8  3
  1.157144159562e-02    8  4  5  2
 -6.917184982079e-04    8  4  5  4
  1.208995918951e-02    8  4  6  1
  1.356411008317e-02    8  4  6  3
  4.535125831519e-03    8  4  7  6
  1.490263005715e-02    8  4  8  2
  1.783014549147e-02    8  4  8  4
 -3.122785353739e-02    8  5  1  1
  6.851990459827e-03    8  5  2  2
  3.417054169936e-02    8  5  3  1
 -5.501711815005e-04    8  5  3  3
  2.435932316665e-02    8  5  4  2
 -8.022575405467e-03    8  5  4  4
 -3.280140371430e-02    8  5  5  5
  6.299956362947e-03    8  5  6  6
 -1.280803210711e-02    8  5  7  1
  1.891525454807e-02    8  5  7  3
  6.761588939776e-03    8  5  7  7
  3.242052037495e-02    8  5  8  5
  3.930452470836e-02    8  6  2  1
  5.226070163133e-02    8  6  3  2
  7.219208209887e-03    8  6  4  1
  4.026153652314e-02    8  6  4  3
  3.732881593877e-02    8  6  6  5
 -3.660605349425e-03    8  6  7  2
  3.878100102635e-02    8  6  7  4
  5.362882981967e-02    8  6  8  6
 -9.480771915313e-03    8  7  5  1
  7.721467476261e-03    8  7  5  3
 -1.373614985592e-04    8  7  6  2
  9.830261019533e-03    8  7  6  4
  1.375753074171e-03    8  7  7  5
  7.882176138850e-03    8  7  8  1
  3.371966576328e-03    8  7  8  3
  1.214755816450e-02    8  7  8  7
  1.484176360888e-01    8  8  1  1
  1.530211486439e-01    8  8  2  2
  4.022675087540e-03    8  8  3  1
  1.572652711049e-01    8  8  3  3
  7.657563947436e-03    8  8  4  2
  1.491357690882e-01    8  8  4  4
  1.469156877788e-01    8  8  5  5
  1.525680121286e-01    8  8  6  6
  2.286292649627e-03    8  8  7  1
 -3.316887338927e-04    8  8  7  3
  1.498136526960e-01    8  8  7  7
  4.866061299448e-03    8  8  8  5
  1.624641209258e-01    8  8  8  8
  3.489476819200e-04    9  1  2  1
 -1.404531416399e-02    9  1  3  2
 -1.425592812556e-02    9  1  4  1
  1.092329253560e-02    9  1  4  3
  5.465715125959e-04    9  1  6  5
  1.407787222583e-02    9  1  7  2
 -3.712493886846e-03    9  1  7  4
 -1.010337394274e-02    9  1  8  6
  2.386191539004e-02    9  1  9  1
 -4.011934957896e-04    9  2  1  1
 -1.782751362714e-02    9  2  2  2
 -1.661833530466e-02    9  2  3  1
 -1.196052234876e-03    9  2  3  3
  1.846664212909e-03    9  2  4  2
  9.411866643903e-03    9  2  4  4
 -1.662482409245e-04    9  2  5  5
 -1.483063397325e-02    9  2  6  6
  2.026343402898e-02    9  2  7  1
  1.379218776476e-02    9  2  7  3
 -8.245377008603e-03    9  2  7  7
 -1.227078280485e-02    9  2  8  5
 -2.767962296296e-03    9  2  8  8
  2.655890022323e-02    9  2  9  2
 -2.410147527074e-02    9  3  2  1
 -1.398892543409e-04    9  3  3  2
  2.470062506070e-02    9  3  4  1
 -4.202621955827e-04    9  3  4  3
 -2.123944743778e-02    9  3  6  5
  2.449192882632e-02    9  3  7  2
  1.123089084048e-02    9  3  7  4
 -7.992157829399e-04    9  3  8  6
 -9.179481966178e-04    9  3  9  1
  3.059434066397e-02    9  3  9  3
 -4.190769114034e-02    9  4  1  1
 -3.978701592226e-03    9  4  2  2
  3.394599952401e-02    9  4  3  1
 -3.174788598797e-03    9  4  3  3
  3.329191180995e-02    9  4  4  2
 -1.023416818593e-02    9  4  4  4
 -3.932140511354e-02    9  4  5  5
 -6.186172120336e-03    9  4  6  6
 -5.063302613326e-03    9  4  7  1
  3.071009074635e-02    9  4  7  3
  9.786427067520e-03    9  4  7  7
  2.736211474842e-02    9  4  8  5
  1.792109842920e-04    9  4  8  8
 -4.148948946244e-03    9  4  9  2
  4.041664379426e-02    9  4  9  4
  7.240285109616e-04    9  5  5  2
 -6.333263587503e-03    9  5  5  4
  6.857312738506e-04    9  5  6  1
 -5.691495617896e-03    9  5  6  3
  5.327615843429e-03    9  5  7  6
 -5.208397090793e-03    9  5  8  2
  3.986148920721e-03    9  5  8  4
  9.706023951613e-03    9  5  9  5
  7.420982382004e-04    9  6  5  1
 -6.445261907572e-03    9  6  5  3
 -6.155920958611e-03    9  6  6  2
  4.237740517129e-04    9  6  6  4
  7.395416350546e-03    9  6  7  5
 -5.890029900515e-03    9  6  8  1
 -1.857408124177e-07    9  6  8  3
  4.426198922140e-03    9  6  8  7
  9.411517834504e-03    9  6  9  6
  5.765643030908e-02    9  7  2  1
  5.523803792536e-02    9  7  3  2
 -9.277768246160e-03    9  7  4  1
  5.129999664763e-02    9  7  4  3
  5.066598688092e-02    9  7  6  5
 -1.045471711903e-02    9  7  7  2
  4.677505035107e-02    9  7  7  4
  4.936824029418e-02    9  7  8  6
 -3.354588145849e-03    9  7  9  1
 -1.090949034728e-02    9  7  9  3
  7.177906483482e-02    9  7  9  7
 -6.819437488721e-03    9  8  5  2
  7.505559104001e-03    9  8  5  4
 -6.876591498080e-03    9  8  6  1
  6.639617610854e-04    9  8  6  3
  7.401998946633e-03    9  8  7  6
  7.653386508375e-04    9  8  8  2
  1.104531203373e-03    9  8  8  4
 -3.619678581257e-04    9  8  9  5
  8.387099755077e-03    9  8  9  8
  1.766707455304e-01    9  9  1  1
  1.659353337487e-01    9  9  2  2
 -9.586512504997e-03    9  9  3  1
  1.610719873227e-01    9  9  3  3
 -1.494556150392e-02    9  9  4  2
  1.619309201721e-01    9  9  4  4
  1.677479087944e-01    9  9  5  5
  1.571998193937e-01    9  9  6  6
 -4.045676866102e-03    9  9  7  1
 -1.762433630298e-02    9  9  7  3
  1.625508537994e-01    9  9  7  7
 -8.529898895140e-03    9  9  8  5
  1.502603143482e-01    9  9  8  8
 -6.325035286731e-03    9  9  9  2
 -1.604883517734e-02    9  9  9  4
  1.772970967168e-01    9  9  9  9
 -1.011240147940e-02    10  1  5  2
  1.580620611537e-02    10  1  5  4
 -1.023285114068e-02    10  1  6  1
  6.619799695476e-03    10  1  6  3
  7.527244283440e-03    10  1  7  6
  6.783560440420e-03    10  1  8  2
  9.172315735920e-04    10  1  8  4
 -5.589484710621e-03    10  1  9  5
  6.891902402127e-03    10  1  9  8
  1.592174993723e-02    10  1  10  1
 -1.202586530507e-02    10  2  5  1
  1.050641588685e-02    10  2  5  3
  5.070570768001e-04    10  2  6  2
  1.713932457297e-02    10  2  6  4
  3.810141057013e-03    10  2  7  5
  1.086205568161e-02    10  2  8  1
  9.286362799538e-03    10  2  8  3
  9.849797188801e-03    10  2  8  7
  2.224159633841e-04    10  2  9  6
  1.822405697714e-02    10  2  10  2
  1.200789672786e-02    10  3  5  2
 -6.202703372180e-04    10  3  5  4
  1.256243825865e-02    10  3  6  1
  1.414908320984e-02    10  3  6  3
  4.082554118041e-03    10  3  7  6
  1.553980682052e-02    10  3  8  2
  1.795381192713e-02    10  3  8  4
  3.617225204006e-03    10  3  9  5
  6.215068127482e-04    10  3  9  8
  1.050187564868e-03    10  3  10  1
  1.822021759876e-02    10  3  10  3
  2.692358242972e-02    10  4  5  1
 -7.857910195120e-04    10  4  5  3
  2.716289296051e-02    10  4  6  2
 -1.365452198397e-03    10  4  6  4
 -1.720023974285e-04    10  4  7  5
  1.179632743327e-03    10  4  8  1
  2.626594053537e-02    10  4  8  3
  3.988702323761e-03    10  4  8  7
  2.926926993554e-03    10  4  9  6
  1.040763489006e-04    10  4  10  2
  2.914740813239e-02    10  4  10  4
 -2.175107347061e-02    10  5  2  1
  6.642230620245e-03    10  5  3  2
  2.826811305894e-02    10  5  4  1
 -4.310529364311e-03    10  5  4  3
 -2.323638882401e-02    10  5  6  5
  1.469443363061e-02    10  5  7  2
  3.026707874644e-03    10  5  7  4
  7.605540763569e-03    10  5  8  6
 -9.762848605777e-03    10  5  9  1
  1.926084726975e-02    10  5  9  3
 -8.771245125491e-03    10  5  9  7
  2.898331517844e-02    10  5  10  5
 -3.456814879194e-02    10  6  1  1
 -4.866355495683e-03    10  6  2  2
  2.612208712121e-02    10  6  3  1
  5.049540250384e-03    10  6  3  3
  3.447795198649e-02    10  6  4  2
 -7.358255009651e-03    10  6  4  4
 -3.635872341383e-02    10  6  5  5
 -6.539640590493e-03    10  6  6  6
  4.061541278685e-03    10  6  7  1
  2.549785229503e-02    10  6  7  3
  3.249961108334e-03    10  6  7  7
  2.495777925941e-02    10  6  8  5
  1.366040310920e-02    10  6  8  8
  2.442621841330e-04    10  6  9  2
  2.779165964851e-02    10  6  9  4
 -1.264560180623e-02    10  6  9  9
  3.934346853984e-02    10  6  10  6
  9.287464312116e-03    10  7  5  2
 -1.021263013307e-04    10  7  5  4
  9.713492658004e-03    10  7  6  1
  1.063630159901e-02    10  7  6  3
  2.295133606713e-04    10  7  7  6
  1.119756329870e-02    10  7  8  2
  1.052803816601e-02    10  7  8  4
 -1.055865396581e-03    10  7  9  5
  3.209440850232e-03    10  7  9  8
 -2.075613366247e-05    10  7  10  1
  1.035770550320e-02    10  7  10  3
  1.127915072706e-02    10  7  10  7
  4.181267419187e-02    10  8  2  1
  4.628441696222e-02    10  8  3  2
 -1.360561665632e-03    10  8  4  1
  4.805542281771e-02    10  8  4  3
  4.029034291234e-02    10  8  6  5
  3.578120153176e-03    10  8  7  2
  3.866455031572e-02    10  8  7  4
  4.940738209445e-02    10  8  8  6
  2.920409641650e-03    10  8  9  1
 -1.452194858252e-03    10  8  9  3
  4.959427247538e-02    10  8  9  7
  6.196368404617e-04    10  8  10  5
  5.343887827861e-02    10  8  10  8
 -8.989780081455e-03    10  9  5  1
  8.038282286084e-03    10  9  5  3
  1.339655179696e-04    10  9  6  2
  7.819432334331e-03    10  9  6  4
 -1.447035575106e-03    10  9  7  5
  7.574348047549e-03    10  9  8  1
  1.062096976931e-03    10  9  8  3
  7.016317005857e-03    10  9  8  7
 -1.153605683900e-03    10  9  9  6
  7.462222704164e-03    10  9  10  2
 -8.671264102801e-04    10  9  10  4
  7.833788767016e-03    10  9  10  9
  1.582894193383e-01    10  10  1  1
  1.553312018475e-01    10  10  2  2
 -2.660325904462e-03    10  10  3  1
  1.508759319872e-01    10  10  3  3
 -7.232727482739e-03    10  10  4  2
  1.545025482570e-01    10  10  4  4
  1.577681145928e-01    10  10  5  5
  1.575249505197e-01    10  10  6  6
 -3.110763880720e-03    10  10  7  1
 -4.710502338679e-03    10  10  7  3
  1.477968745141e-01    10  10  7  7
 -3.426752450792e-04    10  10  8  5
  1.513279747394e-01    10  10  8  8
 -7.535260079437e-04    10  10  9  2
 -8.103146480972e-03    10  10  9  4
  1.528961783950e-01    10  10  9  9
 -6.453051391124e-03    10  10  10  6
  1.582192392985e-01    10  10  10  10
 -2.114274618798e-03    11  1  5  1
  8.648754461404e-03    11  1  5  3
  7.482207369579e-03    11  1  6  2
 -6.000774016159e-03    11  1  6  4
 -1.278786874288e-02    11  1  7  5
  7.931589855856e-03    11  1  8  1
 -6.345929005091e-03    11  1  8  3
  8.516367685322e-04    11  1  8  7
 -5.933160663024e-03    11  1  9  6
 -6.601750863500e-03    11  1  10  2
  2.083336271000e-03    11  1  10  4
  1.440467121196e-03    11  1  10  9
  1.826367063135e-02    11  1  11  1
  9.153541000952e-03    11  2  5  2
 -9.849794941508e-03    11  2  5  4
  9.318449597049e-03    11  2  6  1
 -1.529875245497e-03    11  2  6  3
 -1.148113199414e-02    11  2  7  6
 -2.072410699024e-03    11  2  8  2
 -4.031626709728e-03    11  2  8  4
 -2.704277454452e-03    11  2  9  5
 -5.859233899452e-03    11  2  9  8
 -1.064997708451e-02    11  2  10  1
 -3.868866369783e-03    11  2  10  3
  1.375484791446e-03    11  2  10  7
  1.255614732434e-02    11  2  11  2
  1.211657515122e-02    11  3  5  1
 -1.130804540395e-02    11  3  5  3
 -1.279589741287e-03    11  3  6  2
 -9.282569617628e-03    11  3  6  4
  2.436105724608e-03    11  3  7  5
 -1.133061480309e-02    11  3  8  1
 -1.228837877648e-03    11  3  8  3
 -1.124466951550e-02    11  3  8  7
 -1.411008574933e-03    11  3  9  6
 -9.547175162121e-03    11  3  10  2
 -2.420492140278e-03    11  3  10  4
 -6.104439227872e-03    11  3  10  9
 -5.530772433978e-03    11  3  11  1
  1.312826506804e-02    11  3  11  3
 -1.253187022098e-02    11  4  5  2
  3.723891161745e-03    11  4  5  4
 -1.308030354372e-02    11  4  6  1
 -1.009253200702e-02    11  4  6  3
  2.934473047241e-03    11  4  7  6
 -1.069956277439e-02    11  4  8  2
 -9.975461100155e-03    11  4  8  4
  9.385385565639e-04    11  4  9  5
 -7.101474774068e-04    11  4  9  8
  3.681621442418e-03    11  4  10  1
 -1.012385137389e-02    11  4  10  3
 -1.097077515224e-02    11  4  10  7
 -4.820887236129e-03    11  4  11  2
  1.248715043404e-02    11  4  11  4
 -4.618375666721e-03    11  5  1  1
  1.270915248568e-02    11  5  2  2
  1.598375656043e-02    11  5  3  1
 -6.870247551083e-03    11  5  3  3
 -4.967328190799e-03    11  5  4  2
 -1.051262924359e-03    11  5  4  4
 -4.888972082260e-03    11  5  5  5
  1.442015485903e-02    11  5  6  6
 -1.987618593005e-02    11  5  7  1
 -6.173451855678e-05    11  5  7  3
  4.306947076675e-03    11  5  7  7
  1.571213920933e-02    11  5  8  5
 -9.297164580374e-03    11  5  8  8
 -1.332609069909e-02    11  5  9  2
  5.947407890264e-03    11  5  9  4
  1.473312299194e-03    11  5  9  9
 -9.923263463281e-03    11  5  10  6
  7.575976721699e-03    11  5  10  10
  3.248255839206e-02    11  5  11  5
  2.047994112237e-02    11  6  2  1
  1.053581532305e-03    11  6  3  2
 -1.932431271408e-02    11  6  4  1
 -1.609084097530e-03    11  6  4  3
  2.212087309010e-02    11  6  6  5
 -2.108333578223e-02    11  6  7  2
 -3.344345845680e-05    11  6  7  4
 -1.684586386654e-03    11  6  8  6
 -3.225911179001e-03    11  6  9  1
 -1.689408098417e-02    11  6  9  3
  1.001956840668e-02    11  6  9  7
 -2.253842999124e-02    11  6  10  5
 -2.651070092368e-03    11  6  10  8
  2.426000920328e-02    11  6  11  6
 -2.492251443749e-02    11  7  5  1
  3.247814969309e-03    11  7  5  3
 -2.159472551773e-02    11  7  6  2
  3.592139530431e-03    11  7  6  4
  5.680486758334e-04    11  7  7  5
  2.138011098925e-03    11  7  8  1
 -2.028662374236e-02    11  7  8  3
  2.031316592116e-03    11  7  8  7
  1.278207500551e-03    11  7  9  6
  2.877058267491e-03    11  7  10  2
 -1.996945041152e-02    11  7  10  4
  1.398964293874e-04    11  7  10  9
  6.036402160930e-04    11  7  11  1
 -4.872964304405e-03    11  7  11  3
  1.988955944964e-02    11  7  11  7
  3.013149965036e-02    11  8  1  1
  2.170541159681e-04    11  8  2  2
 -2.639215986436e-02    11  8  3  1
  1.562836072807e-03    11  8  3  3
 -2.340351148270e-02    11  8  4  2
  2.758372832465e-03    11  8  4  4
  3.183770884477e-02    11  8  5  5
 -6.961841404516e-04    11  8  6  6
  4.788432787648e-03    11  8  7  1
 -2.453852668634e-02    11  8  7  3
 -2.529449815533e-03    11  8  7  7
 -2.688886769738e-02    11  8  8  5
 -2.924373916985e-03    11  8  8  8
  3.702258994832e-04    11  8  9  2
 -2.395554677714e-02    11  8  9  4
  1.069598841146e-02    11  8  9  9
 -2.322802172200e-02    11  8  10  6
 -1.298292633598e-03    11  8  10  10
 -1.230389970041e-02    11  8  11  5
  2.797463214972e-02    11  8  11  8
 -7.316743266837e-03    11  9  5  2
  1.931745909349e-03    11  9  5  4
 -7.467553367978e-03    11  9  6  1
 -6.445260791696e-03    11  9  6  3
  1.957517047974e-03    11  9  7  6
 -6.616932586977e-03    11  9  8  2
 -6.218260479014e-03    11  9  8  4
  4.072628122688e-04    11  9  9  5
  1.447652226671e-03    11  9  9  8
  1.414243418164e-03    11  9  10  1
 -6.028760943105e-03    11  9  10  3
 -5.108245985397e-03    11  9  10  7
 -1.617846075534e-03    11  9  11  2
  4.588471782693e-03    11  9  11  4
  5.172113304507e-03    11  9  11  9
 -4.195324943837e-02    11  10  2  1
 -3.516255146350e-02    11  10  3  2
  1.073335644683e-02    11  10  4  1
 -3.352611409405e-02    11  10  4  3
 -4.335817745858e-02    11  10  6  5
  9.190011241163e-03    11  10  7  2
 -3.204342493095e-02    11  10  7  4
 -3.512465035866e-02    11  10  8  6
  1.483367250089e-03    11  10  9  1
  6.717041063057e-03    11  10  9  3
 -4.160451874431e-02    11  10  9  7
  1.386658670397e-02    11  10  10  5
 -3.689357817064e-02    11  10  10  8
 -1.506917656379e-02    11  10  11  6
  3.984366037562e-02    11  10  11  10
  1.850002527612e-01    11  11  1  1
  1.537700621336e-01    11  11  2  2
 -2.738347089437e-02    11  11  3  1
  1.507947335833e-01    11  11  3  3
 -2.860017882719e-02    11  11  4  2
  1.540379647683e-01    11  11  4  4
  1.888227150683e-01    11  11  5  5
  1.555420915395e-01    11  11  6  6
  1.326848004829e-03    11  11  7  1
 -2.792828620187e-02    11  11  7  3
  1.461038971189e-01    11  11  7  7
 -2.774670933572e-02    11  11  8  5
  1.477006214878e-01    11  11  8  8
 -1.683418394831e-03    11  11  9  2
 -2.720033519513e-02    11  11  9  4
  1.595339992775e-01    11  11  9  9
 -2.959843724313e-02    11  11  10  6
  1.550788529782e-01    11  11  10  10
 -6.202657699727e-03    11  11  11  5
  2.878149610974e-02    11  11  11  8
  1.878651869305e-01    11  11  11  11
 -9.517393101367e-04    12  1  1  1
  1.556558375250e-03    12  1  2  2
  2.119424831982e-03    12  1  3  1
 -6.161819686680e-03    12  1  3  3
 -5.670304850832e-03    12  1  4  2
  4.717824485433e-03    12  1  4  4
 -1.176278756895e-03    12  1  5  5
  4.224770608586e-03    12  1  6  6
 -5.663958986288e-03    12  1  7  1
  4.811567663251e-03    12  1  7  3
 -1.189566748066e-03    12  1  7  7
  4.184491067869e-03    12  1  8  5
 -9.155656157730e-03    12  1  8  8
  2.943976544685e-03    12  1  9  2
 -2.462451944301e-05    12  1  9  4
 -7.508272691355e-04    12  1  9  9
 -1.005356794736e-02    12  1  10  6
  6.201977338804e-03    12  1  10  10
  1.882040113498e-02    12  1  11  5
 -7.882856182874e-03    12  1  11  8
 -3.831217889704e-03    12  1  11  11
  1.680827506366e-02    12  1  12  1
  3.164795372312e-03    12  2  2  1
 -7.916310727003e-03    12  2  3  2
 -1.040412426433e-02    12  2  4  1
  3.097418501085e-03    12  2  4  3
  5.703534525843e-03    12  2  6  5
  3.056209636944e-03    12  2  7  2
  2.715590127093e-03    12  2  7  4
 -8.324640726739e-03    12  2  8  6
  9.596017043252e-03    12  2  9  1
  1.622546992623e-03    12  2  9  3
 -5.875196621918e-04    12  2  9  7
 -1.297297410169e-02    12  2  10  5
 -2.407961020946e-03    12  2  10  8
  8.499210721279e-03    12  2  11  6
 -6.671389553938e-03    12  2  11  10
  1.258529441338e-02    12  2  12  2
  2.581935546221e-03    12  3  1  1
 -1.188800923574e-02    12  3  2  2
 -1.319271322571e-02    12  3  3  1
 -1.160230433344e-03    12  3  3  3
 -8.762271329699e-04    12  3  4  2
  1.702180766628e-03    12  3  4  4
  5.180506610872e-03    12  3  5  5
 -1.189738340669e-02    12  3  6  6
  1.245128197713e-02    12  3  7  1
  3.125994728500e-03    12  3  7  3
 -1.974047607220e-03    12  3  7  7
 -1.420799641741e-02    12  3  8  5
 -3.463155946597e-03    12  3  8  8
  1.255245861822e-02    12  3  9  2
 -1.135993971843e-03    12  3  9  4
 -3.428501251082e-03    12  3  9  9
 -3.882532396210e-03    12  3  10  6
 -5.565118835678e-03    12  3  10  10
 -1.443227300623e-02    12  3  11  5
  1.027563671397e-02    12  3  11  8
  8.269381502550e-03    12  3  11  11
 -5.105854222339e-03    12  3  12  1
  1.450948750613e-02    12  3  12  3
 -2.007874140568e-02    12  4  2  1
 -2.669186208244e-03    12  4  3  2
  1.788467928761e-02    12  4  4  1
 -4.507756676424e-03    12  4  4  3
 -2.197517579312e-02    12  4  6  5
  1.468793113601e-02    12  4  7  2
  1.388878312400e-03    12  4  7  4
 -5.064402401676e-03    12  4  8  6
 -1.952494434879e-03    12  4  9  1
  1.651951022955e-02    12  4  9  3
 -7.116978215543e-03    12  4  9  7
  1.723790500570e-02    12  4  10  5
 -7.241976447962e-03    12  4  10  8
 -1.570365548864e-02    12  4  11  6
  1.535958696518e-02    12  4  11  10
 -4.939283444417e-03    12  4  12  2
  1.712265559656e-02    12  4  12  4
 -8.980528904802e-04    12  5  5  1
  5.043628717372e-03    12  5  5  3
  4.905073648731e-03    12  5  6  2
 -7.514186303432e-03    12  5  6  4
 -9.802049142152e-03    12  5  7  5
  4.673233814636e-03    12  5  8  1
 -7.274492644280e-03    12  5  8  3
  3.997618050818e-03    12  5  8  7
  1.060648134500e-04    12  5  9  6
 -8.331562188077e-03    12  5  10  2
  5.372976179005e-03    12  5  10  4
  2.562895819439e-04    12  5  10  9
  1.763129613153e-02    12  5  11  1
 -7.469463574226e-03    12  5  11  3
  1.400921781972e-03    12  5  11  7
  2.177604052554e-02    12  5  12  5
  6.104236211513e-03    12  6  5  2
 -1.094933236102e-02    12  6  5  4
  6.235185626669e-03    12  6  6  1
 -6.006184671764e-03    12  6  6  3
 -3.981362527448e-03    12  6  7  6
 -6.215520112971e-03    12  6  8  2
 -1.227052119790e-03    12  6  8  4
  3.894811011411e-03    12  6  9  5
 -5.546809533746e-04    12  6  9  8
 -1.189944062836e-02    12  6  10  1
 -1.685569277132e-03    12  6  10  3
  3.408916025247e-03    12  6  10  7
  8.697190945400e-03    12  6  11  2
 -5.820768128971e-03    12  6  11  4
 -2.188202033394e-04    12  6  11  9
  1.362454617977e-02    12  6  12  6
 -2.092191110775e-02    12  7  1  1
  3.539718321825e-03    12  7  2  2
  2.164771709707e-02    12  7  3  1
  3.111824249272e-03    12  7  3  3
  1.960861257045e-02    12  7  4  2
 -1.030139478538e-03    12  7  4  4
 -2.511778777268e-02    12  7  5  5
 -1.853510582460e-03    12  7  6  6
 -4.385918122802e-03    12  7  7  1
  1.682023398621e-02    12  7  7  3
  1.078204979229e-02    12  7  7  7
  1.941051939370e-02    12  7  8  5
  1.291392732651e-03    12  7  8  8
 -3.854284998384e-03    12  7  9  2
  2.108598282376e-02    12  7  9  4
  1.097395737766e-03    12  7  9  9
  1.879096840306e-02    12  7  10  6
 -4.388044503201e-03    12  7  10  10
  5.486509619846e-03    12  7  11  5
 -1.745824025167e-02    12  7  11  8
 -2.351355011038e-02    12  7  11  11
  1.073105736524e-03    12  7  12  1
 -5.786201598015e-03    12  7  12  3
  1.949631936416e-02    12  7  12  7
  6.173807495665e-03    12  8  5  1
 -1.185588017848e-02    12  8  5  3
 -7.668413161670e-03    12  8  6  2
 -4.258307789997e-03    12  8  6  4
  7.525513217963e-03    12  8  7  5
 -1.192727431168e-02    12  8  8  1
 -2.030696107787e-03    12  8  8  3
 -3.993146246516e-03    12  8  8  7
  4.884870001325e-03    12  8  9  6
 -5.136120033648e-03    12  8  10  2
 -2.550375732207e-03    12  8  10  4
 -1.473091393123e-03    12  8  10  9
 -9.975856735367e-03    12  8  11  1
  9.389102724487e-03    12  8  11  3
 -3.776045539599e-03    12  8  11  7
 -8.512368793834e-03    12  8  12  5
  1.422359101359e-02    12  8  12  8
  2.803289288503e-02    12  9  2  1
  2.655067427890e-02    12  9  3  2
 -4.792052451498e-03    12  9  4  1
  2.481906628222e-02    12  9  4  3
  2.450679654310e-02    12  9  6  5
 -5.157062745620e-03    12  9  7  2
  2.224817286151e-02    12  9  7  4
  2.371629357131e-02    12  9  8  6
 -1.415950308887e-03    12  9  9  1
 -5.587313832742e-03    12  9  9  3
  3.410203551434e-02    12  9  9  7
 -4.400588437322e-03    12  9  10  5
  2.395537816460e-02    12  9  10  8
  4.920599579397e-03    12  9  11  6
 -2.024387435593e-02    12  9  11  10
 -1.811999269766e-04    12  9  12  2
 -4.484615952681e-03    12  9  12  4
  1.760554946994e-02    12  9  12  9
 -1.638871556625e-02    12  10  5  2
  1.105610714891e-02    12  10  5  4
 -1.700212965038e-02    12  10  6  1
 -6.077876300637e-03    12  10  6  3
  8.398403456182e-03    12  10  7  6
 -6.649835087336e-03    12  10  8  2
 -6.967288749227e-03    12  10  8  4
 -7.015373506999e-04    12  10  9  5
  5.652433255932e-03    12  10  9  8
  1.080495473927e-02    12  10  10  1
 -7.682662095085e-03    12  10  10  3
 -6.745220859743e-03    12  10  10  7
 -1.010399371389e-02    12  10  11  2
  1.149935603125e-02    12  10  11  4
  2.762702045694e-03    12  10  11  9
 -8.636948965358e-03    12  10  12  6
  1.837015150679e-02    12  10  12  10
  3.858303074393e-02    12  11  5  1
 -1.584255469350e-02    12  11  5  3
  2.078846475134e-02    12  11  6  2
 -1.401284611178e-02    12  11  6  4
  2.908393701079e-03    12  11  7  5
 -1.430258950499e-02    12  11  8  1
  1.962853659174e-02    12  11  8  3
 -1.055421513749e-02    12  11  8  7
  1.386286489174e-03    12  11  9  6
 -1.339490334532e-02    12  11  10  2
  2.184702468876e-02    12  11  10  4
 -7.877531355199e-03    12  11  10  9
 -4.734239732918e-03    12  11  11  1
  1.496735947093e-02    12  11  11  3
 -2.393002362226e-02    12  11  11  7
 -3.893614062057e-03    12  11  12  5
  1.149084012153e-02    12  11  12  8
  4.616906628151e-02    12  11  12  11
  1.841484538834e-01    12  12  1  1
  1.546862851500e-01    12  12  2  2
 -2.588375971265e-02    12  12  3  1
  1.517607945798e-01    12  12  3  3
 -2.727326816708e-02    12  12  4  2
  1.549806900083e-01    12  12  4  4
  1.868405007011e-01    12  12  5  5
  1.552484073119e-01    12  12  6  6
  1.117729799930e-03    12  12  7  1
 -2.675866592094e-02    12  12  7  3
  1.469500573220e-01    12  12  7  7
 -2.632014630688e-02    12  12  8  5
  1.477099884329e-01    12  12  8  8
 -1.652432481668e-03    12  12  9  2
 -2.670069535691e-02    12  12  9  4
  1.609848386978e-01    12  12  9  9
 -2.815161936104e-02    12  12  10  6
  1.548733830913e-01    12  12  10  10
 -5.686399069927e-03    12  12  11  5
  2.700297415105e-02    12  12  11  8
  1.846947685763e-01    12  12  11  11
 -3.329386057730e-03    12  12  12  1
  6.703538000904e-03    12  12  12  3
 -2.085910239921e-02    12  12  12  7
  1.834465095917e-01    12  12  12  12
  8.392115531418e-04    13  1  2  1
 -1.074218333145e-03    13  1  3  2
 -2.659537194325e-03    13  1  4  1
  5.462186921227e-03    13  1  4  3
 -1.938438913081e-03    13  1  6  5
  3.915588987618e-03    13  1  7  2
 -5.579662231169e-03    13  1  7  4
  2.459688140242e-03    13  1  8  6
  7.264248180667e-03    13  1  9  1
 -5.659535630860e-03    13  1  9  3