 &FCI NORB=22 ,NELEC=22 ,MS2=2,
  ORBSYM=5,6,5,6,7,8,5,7,6,8,7,5,6,8,5,7,6,5,8,7,8,7,
  ISYM=1,
 &END
  1.978449273172e-01    1  1  1  1
  6.179535735357e-02    2  1  2  1
  1.623570621973e-01    2  2  1  1
  1.713447701841e-01    2  2  2  2
 -3.436075206412e-02    3  1  1  1
  8.476285499593e-03    3  1  2  2
  4.126727809098e-02    3  1  3  1
  4.152463284144e-02    3  2  2  1
  5.198804852468e-02    3  2  3  2
  1.595867789418e-01    3  3  1  1
  1.552048097397e-01    3  3  2  2
 -4.394527761665e-03    3  3  3  1
  1.602914097090e-01    3  3  3  3
 -2.187684691992e-02    4  1  2  1
  8.192347932676e-03    4  1  3  2
  2.953103219458e-02    4  1  4  1
 -3.587602297249e-02    4  2  1  1
 -8.381012287874e-03    4  2  2  2
  2.650985717055e-02    4  2  3  1
  4.714443231301e-04    4  2  3  3
  3.408987320651e-02    4  2  4  2
  3.996604842228e-02    4  3  2  1
  3.860087159896e-02    4  3  3  2
 -2.949432148080e-03    4  3  4  1
  5.080176759323e-02    4  3  4  3
  1.579885356437e-01    4  4  1  1
  1.517263501601e-01    4  4  2  2
 -6.214149579759e-03    4  4  3  1
  1.560011929654e-01    4  4  3  3
 -1.862240916596e-03    4  4  4  2
  1.609168658808e-01    4  4  4  4
  4.021664467785e-02    5  1  5  1
  2.080543132786e-02    5  2  5  2
 -1.280190497749e-02    5  3  5  1
  1.789142314416e-02    5  3  5  3
 -9.988195655918e-03    5  4  5  2
  1.470725318617e-02    5  4  5  4
  1.931711437044e-01    5  5  1  1
  1.573111941711e-01    5  5  2  2
 -3.455242768117e-02    5  5  3  1
  1.551087294028e-01    5  5  3  3
 -3.520074584490e-02    5  5  4  2
  1.533871555714e-01    5  5  4  4
  1.937065542631e-01    5  5  5  5
  2.138536376558e-02    6  1  5  2
 -1.020505781149e-02    6  1  5  4
  2.198965348126e-02    6  1  6  1
  2.735995146254e-02    6  2  5  1
  6.143000981435e-03    6  2  5  3
  3.458811188289e-02    6  2  6  2
  1.121848709933e-02    6  3  5  2
  5.452775523432e-03    6  3  5  4
  1.158826207788e-02    6  3  6  1
  1.792728759803e-02    6  3  6  3
 -1.232895299003e-02    6  4  5  1
  9.805001268581e-03    6  4  5  3
 -1.993111062206e-03    6  4  6  2
  1.625344364644e-02    6  4  6  4
  5.774932716161e-02    6  5  2  1
  3.790023299897e-02    6  5  3  2
 -2.108908226658e-02    6  5  4  1
  3.694191056866e-02    6  5  4  3
  5.717558466388e-02    6  5  6  5
  1.596879258319e-01    6  6  1  1
  1.659312950673e-01    6  6  2  2
  5.933112208729e-03    6  6  3  1
  1.505677180634e-01    6  6  3  3
 -9.740957352438e-03    6  6  4  2
  1.488574920865e-01    6  6  4  4
  1.582561724165e-01    6  6  5  5
  1.660830061104e-01    6  6  6  6
  3.371565881601e-04    7  1  1  1
 -1.622295692573e-02    7  1  2  2
 -1.594466377190e-02    7  1  3  1
  4.552563326887e-03    7  1  3  3
  5.515095276714e-03    7  1  4  2
  4.939885216719e-03    7  1  4  4
  9.742589851671e-04    7  1  5  5
 -1.469715780575e-02    7  1  6  6
  2.083893637217e-02    7  1  7  1
 -2.252693735448e-02    7  2  2  1
 -6.411716303260e-03    7  2  3  2
  1.635922704160e-02    7  2  4  1
  9.031660037611e-03    7  2  4  3
 -2.083698758647e-02    7  2  6  5
  3.097029073091e-02    7  2  7  2
 -3.685139246293e-02    7  3  1  1
 -1.243615495975e-02    7  3  2  2
  2.356044739272e-02    7  3  3  1
 -4.073977195572e-03    7  3  3  3
  3.103772491513e-02    7  3  4  2
  2.455662744161e-03    7  3  4  4
 -3.573410408892e-02    7  3  5  5
 -1.157079685274e-02    7  3  6  6
  6.295425614266e-03    7  3  7  1
  3.664153484658e-02    7  3  7  3
  3.694870874724e-02    7  4  2  1
  4.523649904455e-02    7  4  3  2
  6.564382024903e-03    7  4  4  1
  4.278519908759e-02    7  4  4  3
  3.496336078115e-02    7  4  6  5
  3.169350489224e-03    7  4  7  2
  4.972152914508e-02    7  4  7  4
  9.196962248762e-04    7  5  5  1
 -8.103753862926e-03    7  5  5  3
 -7.685956492877e-03    7  5  6  2
  4.979806123922e-03    7  5  6  4
  1.191466544821e-02    7  5  7  5
 -9.300525471569e-03    7  6  5  2
  8.366443320802e-03    7  6  5  4
 -9.513116181392e-03    7  6  6  1
 -6.214626382617e-04    7  6  6  3
  1.368070332202e-02    7  6  7  6
  1.533477165419e-01    7  7  1  1
  1.608921470881e-01    7  7  2  2
  7.136540031238e-03    7  7  3  1
  1.557377382223e-01    7  7  3  3
  1.292240884670e-03    7  7  4  2
  1.543851973520e-01    7  7  4  4
  1.489275677656e-01    7  7  5  5
  1.536205267269e-01    7  7  6  6
 -6.249613767186e-03    7  7  7  1
 -7.801911349577e-04    7  7  7  3
  1.630993480764e-01    7  7  7  7
 -1.119167537039e-02    8  1  5  1
  1.783361249449e-02    8  1  5  3
  7.746309540787e-03    8  1  6  2
  9.615548168868e-03    8  1  6  4
 -8.174936062715e-03    8  1  7  5
  1.790097369143e-02    8  1  8  1
  1.226266170490e-02    8  2  5  2
  5.066656461287e-03    8  2  5  4
  1.267314320151e-02    8  2  6  1
  1.861611735401e-02    8  2  6  3
 -7.866088156401e-04    8  2  7  6
  1.939124186007e-02    8  2  8  2
  2.640916502062e-02    8  3  5  1
 -5.407436580300e-04    8  3  5  3
  2.650476251278e-02    8  3  6  2
  5.712752116810e-03    8  3  6  4
  5.159894045565e-03    8  3  7  5
  9.006420128160e-04    8  3  8  1
  3.281873231131e-02    8  3  8  3
  1.063582728881e-02    8  4  5  2
  9.020603859847e-04    8  4  5  4
  1.096989724429e-02    8  4  6  1
  1.246895785138e-02    8  4  6  3
  5.442376518503e-03    8  4  7  6
  1.330336966760e-02    8  4  8  2
  1.683267033891e-02    8  4  8  4
 -3.108780954010e-02    8  5  1  1
  8.072460131760e-03    8  5  2  2
  3.764965980316e-02    8  5  3  1
 -4.197270314810e-03    8  5  3  3
  2.363993993254e-02    8  5  4  2
 -4.085126298458e-03    8  5  4  4
 -3.305755687065e-02    8  5  5  5
  7.307101373329e-03    8  5  6  6
 -1.458336998387e-02    8  5  7  1
  2.251365938055e-02    8  5  7  3
  4.304187492065e-03    8  5  7  7
  3.766078789271e-02    8  5  8  5
  4.071264306661e-02    8  6  2  1
  4.896595860784e-02    8  6  3  2
  6.192227888171e-03    8  6  4  1
  3.859786308771e-02    8  6  4  3
  3.896275179640e-02    8  6  6  5
 -4.952697101247e-03    8  6  7  2
  4.130040598434e-02    8  6  7  4
  4.977144907572e-02    8  6  8  6
 -1.156438665615e-02    8  7  5  1
  9.916600622975e-03    8  7  5  3
 -1.048745848893e-03    8  7  6  2
  1.089603531787e-02    8  7  6  4
  7.743097817056e-04    8  7  7  5
  9.929534564489e-03    8  7  8  1
  6.586293478665e-04    8  7  8  3
  1.354811563447e-02    8  7  8  7
  1.552655431116e-01    8  8  1  1
  1.519894778310e-01    8  8  2  2
 -3.219812061657e-03    8  8  3  1
  1.576883816997e-01    8  8  3  3
  2.379482631655e-03    8  8  4  2
  1.498048791952e-01    8  8  4  4
  1.545086788215e-01    8  8  5  5
  1.512229793732e-01    8  8  6  6
  5.020174653616e-03    8  8  7  1
 -5.186162651989e-03    8  8  7  3
  1.494641388847e-01    8  8  7  7
 -3.124106621775e-03    8  8  8  5
  1.619548269190e-01    8  8  8  8
  9.468645448857e-04    9  1  2  1
 -1.365464200182e-02    9  1  3  2
 -1.392450128065e-02    9  1  4  1
  1.197570408666e-02    9  1  4  3
  1.304089788815e-03    9  1  6  5
  1.289904686714e-02    9  1  7  2
 -4.268309920883e-03    9  1  7  4
 -9.985757089390e-03    9  1  8  6
  2.624625608054e-02    9  1  9  1
  5.941227546190e-04    9  2  1  1
 -1.790070290297e-02    9  2  2  2
 -1.781751034517e-02    9  2  3  1
  8.788193949939e-04    9  2  3  3
  1.925458484258e-03    9  2  4  2
  8.556094700951e-03    9  2  4  4
  1.173003929830e-03    9  2  5  5
 -1.443592182525e-02    9  2  6  6
  2.003035893768e-02    9  2  7  1
  9.772466950719e-03    9  2  7  3
 -8.031867614603e-03    9  2  7  7
 -1.442798335832e-02    9  2  8  5
 -1.049532538280e-03    9  2  8  8
  2.527591485354e-02    9  2  9  2
 -2.489481632920e-02    9  3  2  1
  2.721718556306e-04    9  3  3  2
  2.528876129497e-02    9  3  4  1
 -9.159177664066e-04    9  3  4  3
 -2.182633279109e-02    9  3  6  5
  2.265331174155e-02    9  3  7  2
  8.308303752958e-03    9  3  7  4
 -1.628629143475e-03    9  3  8  6
 -4.971905976796e-03    9  3  9  1
  3.008313209352e-02    9  3  9  3
 -3.944199154573e-02    9  4  1  1
 -2.777372142767e-03    9  4  2  2
  3.544950894594e-02    9  4  3  1
 -5.182295517362e-03    9  4  3  3
  3.154400660033e-02    9  4  4  2
 -5.238320844136e-03    9  4  4  4
 -3.721888472247e-02    9  4  5  5
 -5.228976854824e-03    9  4  6  6
 -5.924471556620e-03    9  4  7  1
  3.066228735573e-02    9  4  7  3
  6.553516170869e-03    9  4  7  7
  2.958288672865e-02    9  4  8  5
 -5.183731953016e-03    9  4  8  8
 -7.777189809070e-03    9  4  9  2
  4.011421960714e-02    9  4  9  4
  8.039686087660e-04    9  5  5  2
 -6.049042157842e-03    9  5  5  4
  7.946950398514e-04    9  5  6  1
 -5.577404527179e-03    9  5  6  3
  5.049287039909e-03    9  5  7  6
 -5.343838250574e-03    9  5  8  2
  4.545340225544e-03    9  5  8  4
  1.074680046661e-02    9  5  9  5
  8.869964832877e-04    9  6  5  1
 -6.718530844100e-03    9  6  5  3
 -6.175904130259e-03    9  6  6  2
  7.404743415516e-04    9  6  6  4
  7.452888187073e-03    9  6  7  5
 -6.565688899693e-03    9  6  8  1
  6.921212229816e-04    9  6  8  3
  3.411646052454e-03    9  6  8  7
  9.090209265219e-03    9  6  9  6
  5.483481213160e-02    9  7  2  1
  4.774251640010e-02    9  7  3  2
 -9.259024548206e-03    9  7  4  1
  4.587328451828e-02    9  7  4  3
  4.831517368718e-02    9  7  6  5
 -1.156507864695e-02    9  7  7  2
  4.570654878833e-02    9  7  7  4
  4.340744314313e-02    9  7  8  6
 -1.175760106319e-03    9  7  9  1
 -1.289320160948e-02    9  7  9  3
  5.955857622262e-02    9  7  9  7
 -7.483880839981e-03    9  8  5  2
  8.055181753633e-03    9  8  5  4
 -7.579823854428e-03    9  8  6  1
  6.195352830543e-04    9  8  6  3
  7.093014698200e-03    9  8  7  6
  2.976432581763e-04    9  8  8  2
  4.821049870564e-04    9  8  8  4
 -1.691848953923e-03    9  8  9  5
  8.576220932436e-03    9  8  9  8
  1.843687405179e-01    9  9  1  1
  1.658603444925e-01    9  9  2  2
 -1.820167572356e-02    9  9  3  1
  1.623930934651e-01    9  9  3  3
 -2.154240935300e-02    9  9  4  2
  1.612341274928e-01    9  9  4  4
  1.750225042175e-01    9  9  5  5
  1.579062797970e-01    9  9  6  6
 -2.107077162689e-03    9  9  7  1
 -2.332991405673e-02    9  9  7  3
  1.609664285997e-01    9  9  7  7
 -1.572017389191e-02    9  9  8  5
  1.535254042394e-01    9  9  8  8
 -2.490978365230e-03    9  9  9  2
 -2.414031103896e-02    9  9  9  4
  1.852050181690e-01    9  9  9  9
 -9.326841977481e-03    10  1  5  2
  1.472933634392e-02    10  1  5  4
 -9.539524894659e-03    10  1  6  1
  6.252295193047e-03    10  1  6  3
  8.940598706056e-03    10  1  7  6
  5.941816489808e-03    10  1  8  2
  2.248494688642e-03    10  1  8  4
 -5.336604801467e-03    10  1  9  5
  7.369004162901e-03    10  1  9  8
  1.503545249856e-02    10  1  10  1
 -1.125949044647e-02    10  2  5  1
  1.019573996259e-02    10  2  5  3
 -4.535238906283e-04    10  2  6  2
  1.706346164274e-02    10  2  6  4
  5.321060807370e-03    10  2  7  5
  1.012875664669e-02    10  2  8  1
  7.747660365763e-03    10  2  8  3
  1.092666183295e-02    10  2  8  7
  5.333081944479e-04    10  2  9  6
  1.814810609959e-02    10  2  10  2
  1.157857517490e-02    10  3  5  2
  1.025726105560e-03    10  3  5  4
  1.196192389267e-02    10  3  6  1
  1.359193891750e-02    10  3  6  3
  4.988722807455e-03    10  3  7  6
  1.451756842165e-02    10  3  8  2
  1.736686399890e-02    10  3  8  4
  4.021507867575e-03    10  3  9  5
  2.568607894708e-04    10  3  9  8
  2.417462447795e-03    10  3  10  1
  1.807197582486e-02    10  3  10  3
  2.550345541259e-02    10  4  5  1
  1.014418231211e-03    10  4  5  3
  2.729424095563e-02    10  4  6  2
  4.699240840236e-04    10  4  6  4
 -2.538916696472e-04    10  4  7  5
  2.627380322724e-03    10  4  8  1
  2.636390835758e-02    10  4  8  3
  3.977159268058e-03    10  4  8  7
  2.760022187800e-03    10  4  9  6
  1.668788116568e-03    10  4  10  2
  2.922288993342e-02    10  4  10  4
 -1.936458561533e-02    10  5  2  1
  7.548179166377e-03    10  5  3  2
  2.622416369999e-02    10  5  4  1
 -5.547106234916e-04    10  5  4  3
 -2.060480369381e-02    10  5  6  5
  1.621473984127e-02    10  5  7  2
  3.144926681127e-03    10  5  7  4
  7.339842282093e-03    10  5  8  6
 -9.898869938854e-03    10  5  9  1
  1.950616203618e-02    10  5  9  3
 -7.516777121030e-03    10  5  9  7
  2.717434380080e-02    10  5  10  5
 -3.281061401126e-02    10  6  1  1
 -6.238625825943e-03    10  6  2  2
  2.553397496524e-02    10  6  3  1
  3.499104397628e-03    10  6  3  3
  3.385784114276e-02    10  6  4  2
 -2.723627300479e-03    10  6  4  4
 -3.423765109807e-02    10  6  5  5
 -8.019328739886e-03    10  6  6  6
  6.259903486267e-03    10  6  7  1
  2.689952314474e-02    10  6  7  3
 -1.997478215043e-04    10  6  7  7
  2.441851250010e-02    10  6  8  5
  8.027887121577e-03    10  6  8  8
 -2.035964527219e-05    10  6  9  2
  2.693255504588e-02    10  6  9  4
 -1.832749314432e-02    10  6  9  9
  3.879615856684e-02    10  6  10  6
  1.174836806907e-02    10  7  5  2
 -3.431071703709e-04    10  7  5  4
  1.216034273106e-02    10  7  6  1
  1.193752614825e-02    10  7  6  3
 -8.859708214543e-04    10  7  7  6
  1.252924290087e-02    10  7  8  2
  1.119398880606e-02    10  7  8  4
 -1.151598369041e-03    10  7  9  5
  2.138734577695e-03    10  7  9  8
 -3.711914281600e-04    10  7  10  1
  1.174290244934e-02    10  7  10  3
  1.380097695050e-02    10  7  10  7
  3.878237396809e-02    10  8  2  1
  4.201270230818e-02    10  8  3  2
  1.524318847796e-03    10  8  4  1
  4.564882430855e-02    10  8  4  3
  3.742328654911e-02    10  8  6  5
  4.823762579684e-03    10  8  7  2
  3.989386632997e-02    10  8  7  4
  4.441258101501e-02    10  8  8  6
  3.903599467199e-03    10  8  9  1
 -1.316396607597e-03    10  8  9  3
  4.163724285294e-02    10  8  9  7
  4.264411137811e-03    10  8  10  5
  4.780275980239e-02    10  8  10  8
 -8.251322957533e-03    10  9  5  1
  8.632147728189e-03    10  9  5  3
  7.449695428934e-04    10  9  6  2
  7.513023490881e-03    10  9  6  4
 -1.694181875744e-03    10  9  7  5
  8.253377180067e-03    10  9  8  1
  3.501160994780e-04    10  9  8  3
  7.062947446216e-03    10  9  8  7
 -2.056925744126e-03    10  9  9  6
  7.202897288126e-03    10  9  10  2
  3.929678407808e-04    10  9  10  4
  7.815850845361e-03    10  9  10  9
  1.547445588482e-01    10  10  1  1
  1.550739211554e-01    10  10  2  2
  2.613728165262e-04    10  10  3  1
  1.505182278829e-01    10  10  3  3
 -4.232112723848e-03    10  10  4  2
  1.530955436512e-01    10  10  4  4
  1.541344535058e-01    10  10  5  5
  1.569779943775e-01    10  10  6  6
 -3.641481851571e-03    10  10  7  1
 -1.747523267361e-03    10  10  7  3
  1.492021953454e-01    10  10  7  7
  2.705339625412e-03    10  10  8  5
  1.508885676115e-01    10  10  8  8
 -6.674551196397e-04    10  10  9  2
 -4.762939475650e-03    10  10  9  4
  1.526301690357e-01    10  10  9  9
 -3.634130261774e-03    10  10  10  6
  1.571564626442e-01    10  10  10  10
 -5.184135772990e-04    11  1  5  1
  7.798546906581e-03    11  1  5  3
  7.799862141160e-03    11  1  6  2
 -7.399603883853e-03    11  1  6  4
 -1.346317945310e-02    11  1  7  5
  7.980406462565e-03    11  1  8  1
 -7.411406197631e-03    11  1  8  3
  2.675521263546e-04    11  1  8  7
 -6.014724231079e-03    11  1  9  6
 -8.040608041259e-03    11  1  10  2
  1.681958465859e-03    11  1  10  4
  1.103214019931e-03    11  1  10  9
  1.654265234423e-02    11  1  11  1
  9.116080350259e-03    11  2  5  2
 -1.060700040065e-02    11  2  5  4
  9.347947788498e-03    11  2  6  1
 -2.117020148372e-03    11  2  6  3
 -1.325027672690e-02    11  2  7  6
 -1.975279253178e-03    11  2  8  2
 -5.862351211395e-03    11  2  8  4
 -2.848948010522e-03    11  2  9  5
 -6.262099378574e-03    11  2  9  8
 -1.149946220010e-02    11  2  10  1
 -5.630419042513e-03    11  2  10  3
  1.414948842713e-03    11  2  10  7
  1.423793528302e-02    11  2  11  2
  1.113311338146e-02    11  3  5  1
 -1.248776360885e-02    11  3  5  3
 -2.189817552258e-03    11  3  6  2
 -1.063978386648e-02    11  3  6  4
  1.792251772898e-03    11  3  7  5
 -1.269568781583e-02    11  3  8  1
 -1.235548137821e-03    11  3  8  3
 -1.344959861547e-02    11  3  8  7
 -1.436107106972e-03    11  3  9  6
 -1.099025831742e-02    11  3  10  2
 -4.988630202150e-03    11  3  10  4
 -6.611168438450e-03    11  3  10  9
 -2.932144239302e-03    11  3  11  1
  1.458821116704e-02    11  3  11  3
 -1.417916610815e-02    11  4  5  2
  2.515286986268e-03    11  4  5  4
 -1.469623557992e-02    11  4  6  1
 -1.211056445498e-02    11  4  6  3
  2.760397362551e-03    11  4  7  6
 -1.289231289053e-02    11  4  8  2
 -1.133992761877e-02    11  4  8  4
  8.492630654198e-04    11  4  9  5
 -6.706982594484e-04    11  4  9  8
  2.525676235126e-03    11  4  10  1
 -1.213017339714e-02    11  4  10  3
 -1.419648543305e-02    11  4  10  7
 -3.423384729485e-03    11  4  11  2
  1.536960333697e-02    11  4  11  4
 -6.357524885078e-04    11  5  1  1
  1.337519629869e-02    11  5  2  2
  1.347752652828e-02    11  5  3  1
 -8.168627550931e-03    11  5  3  3
 -8.433274948391e-03    11  5  4  2
 -5.882592306733e-04    11  5  4  4
 -1.360053551704e-03    11  5  5  5
  1.472895178680e-02    11  5  6  6
 -2.036784189239e-02    11  5  7  1
 -1.468112345651e-03    11  5  7  3
  3.962023646402e-03    11  5  7  7
  1.508628475465e-02    11  5  8  5
 -1.189642081203e-02    11  5  8  8
 -1.297944798120e-02    11  5  9  2
  4.076387678676e-03    11  5  9  4
  1.210368373047e-03    11  5  9  9
 -1.282016910212e-02    11  5  10  6
  6.982994959961e-03    11  5  10  10
  2.861028807505e-02    11  5  11  5
  1.950450640572e-02    11  6  2  1
 -1.227215306102e-03    11  6  3  2
 -2.033871520200e-02    11  6  4  1
 -5.674894522380e-03    11  6  4  3
  2.074353287762e-02    11  6  6  5
 -2.335308405184e-02    11  6  7  2
 -9.504709946756e-04    11  6  7  4
 -2.508287649958e-03    11  6  8  6
 -2.851803023716e-03    11  6  9  1
 -1.744937498212e-02    11  6  9  3
  8.170957561205e-03    11  6  9  7
 -2.324683471416e-02    11  6  10  5
 -7.197400624959e-03    11  6  10  8
  2.645083859432e-02    11  6  11  6
 -2.678329607900e-02    11  7  5  1
  2.450200561532e-03    11  7  5  3
 -2.466136572670e-02    11  7  6  2
  3.229164986765e-03    11  7  6  4
  9.513741950176e-04    11  7  7  5
  1.419283001658e-03    11  7  8  1
 -2.337554304745e-02    11  7  8  3
  2.975347509544e-03    11  7  8  7
  1.295970250510e-03    11  7  9  6
  2.601484947268e-03    11  7  10  2
 -2.268404652315e-02    11  7  10  4
 -6.190566567231e-04    11  7  10  9
 -7.288513910503e-04    11  7  11  1
 -3.026292067711e-03    11  7  11  3
  2.397687871639e-02    11  7  11  7
  3.222895138734e-02    11  8  1  1
  1.436627064249e-03    11  8  2  2
 -2.957874602303e-02    11  8  3  1
  3.448727660003e-03    11  8  3  3
 -2.625012852438e-02    11  8  4  2
 -6.446739757719e-04    11  8  4  4
  3.418309943347e-02    11  8  5  5
  8.307765376867e-04    11  8  6  6
  3.820876237594e-03    11  8  7  1
 -2.910959477259e-02    11  8  7  3
  1.579700784640e-04    11  8  7  7
 -3.123035856772e-02    11  8  8  5
  3.120874506310e-03    11  8  8  8
  9.953964000863e-04    11  8  9  2
 -2.637567911471e-02    11  8  9  4
  1.759123796026e-02    11  8  9  9
 -2.662226191660e-02    11  8  10  6
 -3.019504919423e-03    11  8  10  10
 -7.542986461512e-03    11  8  11  5
  3.305022892383e-02    11  8  11  8
 -8.087587250384e-03    11  9  5  2
  1.752748333708e-03    11  9  5  4
 -8.215536244339e-03    11  9  6  1
 -6.809506829699e-03    11  9  6  3
  2.054627510219e-03    11  9  7  6
 -7.052654334637e-03    11  9  8  2
 -6.426640361908e-03    11  9  8  4
  1.534727751006e-04    11  9  9  5
  2.022821371935e-03    11  9  9  8
  1.299766670248e-03    11  9  10  1
 -6.480696278458e-03    11  9  10  3
 -6.364653299381e-03    11  9  10  7
 -1.486021793619e-03    11  9  11  2
  6.164451750377e-03    11  9  11  4
  5.923553571595e-03    11  9  11  9
 -4.756455588583e-02    11  10  2  1
 -4.016999656300e-02    11  10  3  2
  8.640840508017e-03    11  10  4  1
 -3.870374697875e-02    11  10  4  3
 -4.848662694593e-02    11  10  6  5
  9.579569518515e-03    11  10  7  2
 -4.141043940979e-02    11  10  7  4
 -4.081883289836e-02    11  10  8  6
  1.077823741926e-03    11  10  9  1
  6.743100020199e-03    11  10  9  3
 -4.356098447686e-02    11  10  9  7
  1.070312958674e-02    11  10  10  5
 -3.955359789713e-02    11  10  10  8
 -1.201053579065e-02    11  10  11  6
  4.860523865223e-02    11  10  11  10
  1.754980371254e-01    11  11  1  1
  1.554425277596e-01    11  11  2  2
 -1.922697065009e-02    11  11  3  1
  1.520544742968e-01    11  11  3  3
 -2.160988023082e-02    11  11  4  2
  1.504176092965e-01    11  11  4  4
  1.781089655715e-01    11  11  5  5
  1.568160105730e-01    11  11  6  6
 -1.646345471216e-03    11  11  7  1
 -2.221767345186e-02    11  11  7  3
  1.509712372060e-01    11  11  7  7
 -2.007323897392e-02    11  11  8  5
  1.529403898810e-01    11  11  8  8
 -2.080207358526e-03    11  11  9  2
 -1.928607959268e-02    11  11  9  4
  1.618962127628e-01    11  11  9  9
 -2.278685017726e-02    11  11  10  6
  1.533359532512e-01    11  11  10  10
  7.466809685778e-04    11  11  11  5
  2.285404487422e-02    11  11  11  8
  1.724123910079e-01    11  11  11  11
 -7.849258409307e-06    12  1  1  1
 -8.380787286797e-06    12  1  2  2
 -1.211043452402e-05    12  1  3  1
 -6.266997900348e-03    12  1  3  3
 -5.971065131992e-03    12  1  4  2
  4.732959660815e-03    12  1  4  4
 -1.666891452810e-04    12  1  5  5
  2.799960740855e-03    12  1  6  6
 -4.529003937232e-03    12  1  7  1
  4.626843549080e-03    12  1  7  3
 -1.467717642137e-03    12  1  7  7
  2.906410725756e-03    12  1  8  5
 -1.037054223924e-02    12  1  8  8
  4.752840725585e-03    12  1  9  2
 -1.350079530992e-03    12  1  9  4
 -4.252446740210e-04    12  1  9  9
 -1.064959139073e-02    12  1  10  6
  5.123739566416e-03    12  1  10  10
  1.497312848036e-02    12  1  11  5
 -5.160136487755e-03    12  1  11  8
 -4.555373011889e-04    12  1  11  11
  1.500425524327e-02    12  1  12  1
  2.693840953544e-04    12  2  2  1
 -9.396888308515e-03    12  2  3  2
 -8.863031040320e-03    12  2  4  1
  2.276796865170e-03    12  2  4  3
  2.930730619970e-03    12  2  6  5
  3.736457650797e-03    12  2  7  2
  1.962115177549e-03    12  2  7  4
 -9.552500157645e-03    12  2  8  6
  1.085708658693e-02    12  2  9  1
  2.121621271365e-03    12  2  9  3
 -2.133780181607e-03    12  2  9  7
 -1.202612843135e-02    12  2  10  5
 -4.214228163826e-03    12  2  10  8
  7.772238695254e-03    12  2  11  6
 -4.296091826349e-03    12  2  11  10
  1.422558675021e-02    12  2  12  2
  3.782041244103e-04    12  3  1  1
 -1.273077566897e-02    12  3  2  2
 -1.249466476076e-02    12  3  3  1
  1.981772018602e-04    12  3  3  3
  1.115321291711e-03    12  3  4  2
  1.906478075349e-03    12  3  4  4
  3.090395522876e-03    12  3  5  5
 -1.269383764317e-02    12  3  6  6
  1.285851469973e-02    12  3  7  1
  3.327749535192e-03    12  3  7  3
 -9.258931244750e-04    12  3  7  7
 -1.488458022654e-02    12  3  8  5
 -1.470829475374e-03    12  3  8  8
  1.276596487693e-02    12  3  9  2
 -2.571237866592e-04    12  3  9  4
 -2.894435748204e-03    12  3  9  9
 -2.897450669908e-03    12  3  10  6
 -5.969888280305e-03    12  3  10  10
 -1.235324276356e-02    12  3  11  5
  9.154390408056e-03    12  3  11  8
  3.613123292224e-03    12  3  11  11
 -2.020812259996e-03    12  3  12  1
  1.544989314173e-02    12  3  12  3
 -1.698321550681e-02    12  4  2  1
  4.868591698918e-04    12  4  3  2
  1.711574384676e-02    12  4  4  1
  2.234583880602e-04    12  4  4  3
 -1.919625840005e-02    12  4  6  5
  1.526317593886e-02    12  4  7  2
  3.726382481974e-03    12  4  7  4
 -3.401633478859e-03    12  4  8  6
 -2.586157896823e-03    12  4  9  1
  1.675024035906e-02    12  4  9  3
 -3.264013163769e-03    12  4  9  7
  1.589774793902e-02    12  4  10  5
 -3.023601624583e-03    12  4  10  8
 -1.537045443498e-02    12  4  11  6
  1.215608789003e-02    12  4  11  10
 -2.889617538977e-03    12  4  12  2
  1.772831037714e-02    12  4  12  4
 -2.666312083286e-04    12  5  5  1
  3.780256870114e-03    12  5  5  3
  3.850690750222e-03    12  5  6  2
 -7.844597646312e-03    12  5  6  4
 -9.567789595633e-03    12  5  7  5
  4.124922215944e-03    12  5  8  1
 -8.283619148241e-03    12  5  8  3
  3.803649248272e-03    12  5  8  7
  9.018146264382e-04    12  5  9  6
 -8.809065462490e-03    12  5  10  2
  4.563079544006e-03    12  5  10  4
 -1.751871169550e-04    12  5  10  9
  1.456409057588e-02    12  5  11  1
 -5.229738654845e-03    12  5  11  3
  3.237435936824e-04    12  5  11  7
  1.856541707585e-02    12  5  12  5
  4.742633101566e-03    12  6  5  2
 -1.046551941865e-02    12  6  5  4
  4.930017377788e-03    12  6  6  1
 -6.726562320334e-03    12  6  6  3
 -4.636474227492e-03    12  6  7  6
 -6.655160765128e-03    12  6  8  2
 -2.313573355907e-03    12  6  8  4
  4.510142086579e-03    12  6  9  5
 -5.309051634052e-04    12  6  9  8
 -1.160873621139e-02    12  6  10  1
 -2.731127867350e-03    12  6  10  3
  3.278924878550e-03    12  6  10  7
  8.709366902118e-03    12  6  11  2
 -4.527707495488e-03    12  6  11  4
  8.790715468354e-05    12  6  11  9
  1.460018511743e-02    12  6  12  6
 -2.088919759996e-02    12  7  1  1
  2.857393757421e-03    12  7  2  2
  2.270846256833e-02    12  7  3  1
  1.828420991649e-03    12  7  3  3
  2.028652697910e-02    12  7  4  2
  2.258304744493e-03    12  7  4  4
 -2.540073566806e-02    12  7  5  5
 -3.164255494067e-03    12  7  6  6
 -3.399182329301e-03    12  7  7  1
  1.931938829225e-02    12  7  7  3
  8.440086013687e-03    12  7  7  7
  2.083305754007e-02    12  7  8  5
 -3.027161983979e-03    12  7  8  8
 -4.341129680406e-03    12  7  9  2
  2.248590236051e-02    12  7  9  4
 -3.640573284291e-03    12  7  9  9
  1.961866366193e-02    12  7  10  6
 -3.415204053932e-03    12  7  10  10
  2.486079419946e-03    12  7  11  5
 -1.972747888584e-02    12  7  11  8
 -1.825020947297e-02    12  7  11  11
 -6.401507247597e-04    12  7  12  1
 -3.620715371284e-03    12  7  12  3
  2.195125396691e-02    12  7  12  7
  6.317374305900e-03    12  8  5  1
 -1.309436426735e-02    12  8  5  3
 -7.766324314654e-03    12  8  6  2
 -4.819866968070e-03    12  8  6  4
  7.640098036235e-03    12  8  7  5
 -1.358730457854e-02    12  8  8  1
 -4.539945545998e-04    12  8  8  3
 -5.793120238247e-03    12  8  8  7
  5.136512272885e-03    12  8  9  6
 -5.829661589323e-03    12  8  10  2
 -2.671561350125e-03    12  8  10  4
 -1.837287033877e-03    12  8  10  9
 -8.123243018019e-03    12  8  11  1
  9.692435905200e-03    12  8  11  3
 -3.575081500424e-03    12  8  11  7
 -5.357178259087e-03    12  8  12  5
  1.569774920823e-02    12  8  12  8
  3.101250952472e-02    12  9  2  1
  2.744555238865e-02    12  9  3  2
 -4.776904993022e-03    12  9  4  1
  2.642485905951e-02    12  9  4  3
  2.720596411950e-02    12  9  6  5
 -6.012409622897e-03    12  9  7  2
  2.638736939711e-02    12  9  7  4
  2.484053366820e-02    12  9  8  6
 -6.647947721143e-04    12  9  9  1
 -6.623863205923e-03    12  9  9  3
  3.325225808577e-02    12  9  9  7
 -3.875059583928e-03    12  9  10  5
  2.391544076876e-02    12  9  10  8
  4.236029232869e-03    12  9  11  6
 -2.492512049408e-02    12  9  11  10
 -1.070309612233e-03    12  9  12  2
 -2.308267034865e-03    12  9  12  4
  2.021902869963e-02    12  9  12  9
 -1.642050215467e-02    12  10  5  2
  9.868997930212e-03    12  10  5  4
 -1.701501509510e-02    12  10  6  1
 -6.499242935210e-03    12  10  6  3
  8.830815689510e-03    12  10  7  6
 -7.522984497327e-03    12  10  8  2
 -6.079336101065e-03    12  10  8  4
 -8.743902714762e-04    12  10  9  5
  5.986907809443e-03    12  10  9  8
  9.706544779236e-03    12  10  10  1
 -7.232658391185e-03    12  10  10  3
 -8.123774603347e-03    12  10  10  7
 -9.488688288128e-03    12  10  11  2
  1.144156165167e-02    12  10  11  4
  2.755588383525e-03    12  10  11  9
 -6.599413335208e-03    12  10  12  6
  1.861257328488e-02    12  10  12  10
  3.226496340782e-02    12  11  5  1
 -1.265017943500e-02    12  11  5  3
  1.934291391585e-02    12  11  6  2
 -1.196171938362e-02    12  11  6  4
  1.060379183182e-03    12  11  7  5
 -1.156790669956e-02    12  11  8  1
  1.867871301387e-02    12  11  8  3
 -1.092197870267e-02    12  11  8  7
  1.065982071097e-03    12  11  9  6
 -1.152884267543e-02    12  11  10  2
  1.828034739623e-02    12  11  10  4
 -6.822604496019e-03    12  11  10  9
 -5.949648086929e-04    12  11  11  1
  1.135972205081e-02    12  11  11  3
 -2.130212419075e-02    12  11  11  7
 -1.790357073558e-04    12  11  12  5
  8.330238974160e-03    12  11  12  8
  3.402399124118e-02    12  11  12  11
  1.743338393939e-01    12  12  1  1
  1.563054684186e-01    12  12  2  2
 -1.731976715387e-02    12  12  3  1
  1.529219703739e-01    12  12  3  3
 -1.985689947794e-02    12  12  4  2
  1.513187715660e-01    12  12  4  4
  1.758178020392e-01    12  12  5  5
  1.563269198165e-01    12  12  6  6
 -1.791288807345e-03    12  12  7  1
 -2.064087692967e-02    12  12  7  3
  1.514822368436e-01    12  12  7  7
 -1.833153540385e-02    12  12  8  5
  1.525451990150e-01    12  12  8  8
 -2.208062790194e-03    12  12  9  2
 -1.843838574343e-02    12  12  9  4
  1.629977771320e-01    12  12  9  9
 -2.095381911461e-02    12  12  10  6
  1.528243675080e-01    12  12  10  10
  8.419734839078e-04    12  12  11  5
  2.083604534878e-02    12  12  11  8
  1.693517752435e-01    12  12  11  11
 -4.368688912034e-04    12  12  12  1
  2.183354351989e-03    12  12  12  3
 -1.509242974830e-02    12  12  12  7
  1.688774870832e-01    12  12  12  12
  1.189659996079e-03    13  1  2  1
  9.439084819691e-05    13  1  3  2
 -1.419720083844e-03    13  1  4  1
  5.043973802372e-03    13  1  4  3
 -1.245153403988e-03    13  1  6  5
  3.485815558726e-03    13  1  7  2
 -4.980920750805e-03    13  1  7  4
  2.852652074436e-03    13  1  8  6
  6.280817704987e-03    13  1  9  1
 -6.259766805461e-03    13  1  9  3