 &FCI NORB=22 ,NELEC=22 ,MS2=0,
  ORBSYM=5,6,5,6,7,8,5,7,6,8,7,5,6,8,5,7,6,5,8,7,8,7,
  ISYM=1,
 &END
  1.800747004327e-01    1  1  1  1
  7.651868181926e-02    2  1  2  1
  1.687797583066e-01    2  2  1  1
  1.716488914879e-01    2  2  2  2
 -2.490095713536e-02    3  1  1  1
 -5.219035075869e-04    3  1  2  2
  4.435025494477e-02    3  1  3  1
  2.920906508200e-02    3  2  2  1
  3.728057343828e-02    3  2  3  2
  1.601357202047e-01    3  3  1  1
  1.540061407240e-01    3  3  2  2
 -9.487742586992e-03    3  3  3  1
  1.616860509937e-01    3  3  3  3
  1.079400038386e-02    4  1  2  1
 -2.359240141164e-02    4  1  3  2
  3.092938771469e-02    4  1  4  1
  2.704011500373e-02    4  2  1  1
  9.107894783972e-03    4  2  2  2
 -3.656236841510e-02    4  2  3  1
  4.789393068260e-03    4  2  3  3
  3.633236686460e-02    4  2  4  2
 -5.928529294205e-02    4  3  2  1
 -2.969855821373e-02    4  3  3  2
 -6.935049808613e-04    4  3  4  1
  6.485483758791e-02    4  3  4  3
  1.613820508655e-01    4  4  1  1
  1.543044544876e-01    4  4  2  2
 -1.276559232888e-02    4  4  3  1
  1.604108878897e-01    4  4  3  3
  9.881286240018e-03    4  4  4  2
  1.642989088221e-01    4  4  4  4
  3.412577960306e-02    5  1  5  1
  2.640944178877e-02    5  2  5  2
 -7.904870629906e-03    5  3  5  1
  1.714301989190e-02    5  3  5  3
  8.025005468027e-03    5  4  5  2
  1.572457867360e-02    5  4  5  4
  1.761860910496e-01    5  5  1  1
  1.649251942436e-01    5  5  2  2
 -2.513706769213e-02    5  5  3  1
  1.547881430624e-01    5  5  3  3
  2.799051845414e-02    5  5  4  2
  1.567383809593e-01    5  5  4  4
  1.773110073242e-01    5  5  5  5
  2.626117754164e-02    6  1  5  2
  7.315704010914e-03    6  1  5  4
  2.615627370838e-02    6  1  6  1
  3.059894139096e-02    6  2  5  1
  2.450091206172e-03    6  2  5  3
  3.371859578780e-02    6  2  6  2
  6.725666308586e-03    6  3  5  2
 -1.115493124952e-02    6  3  5  4
  7.356398100196e-03    6  3  6  1
  1.486642775908e-02    6  3  6  3
  8.684601593797e-03    6  4  5  1
 -1.407223603824e-02    6  4  5  3
  1.496596334108e-03    6  4  6  2
  1.640285551677e-02    6  4  6  4
  7.264846234134e-02    6  5  2  1
  2.682174097594e-02    6  5  3  2
  1.107732379087e-02    6  5  4  1
 -5.541168422499e-02    6  5  4  3
  7.335362860810e-02    6  5  6  5
  1.636412716046e-01    6  6  1  1
  1.663366688797e-01    6  6  2  2
 -6.630356968568e-04    6  6  3  1
  1.493410658139e-01    6  6  3  3
  9.120556603576e-03    6  6  4  2
  1.507308198265e-01    6  6  4  4
  1.644656820438e-01    6  6  5  5
  1.666671262211e-01    6  6  6  6
 -7.037606404077e-03    7  1  1  1
 -1.717872692076e-02    7  1  2  2
 -1.186190807517e-02    7  1  3  1
  6.952418437299e-03    7  1  3  3
 -6.300081087758e-04    7  1  4  2
  7.358938606742e-03    7  1  4  4
 -7.808309480233e-03    7  1  5  5
 -1.574510385704e-02    7  1  6  6
  2.386373790533e-02    7  1  7  1
 -2.580354046667e-02    7  2  2  1
 -5.648594052935e-03    7  2  3  2
 -8.341854253618e-03    7  2  4  1
  2.937313206146e-04    7  2  4  3
 -2.452104298306e-02    7  2  6  5
  2.990249429532e-02    7  2  7  2
 -2.822767968618e-02    7  3  1  1
 -1.471604167229e-02    7  3  2  2
  2.808954018009e-02    7  3  3  1
 -6.652331827271e-03    7  3  3  3
 -2.854142208309e-02    7  3  4  2
 -4.160609877183e-03    7  3  4  4
 -2.722377726170e-02    7  3  5  5
 -1.238704290348e-02    7  3  6  6
  7.315051473434e-03    7  3  7  1
  3.470031910296e-02    7  3  7  3
 -2.199402862818e-02    7  4  2  1
 -2.794886699732e-02    7  4  3  2
  1.799882317590e-02    7  4  4  1
  3.066590066712e-02    7  4  4  3
 -2.144598033899e-02    7  4  6  5
 -5.756121535844e-03    7  4  7  2
  3.160859926731e-02    7  4  7  4
 -3.910493662570e-03    7  5  5  1
 -4.798937023873e-03    7  5  5  3
 -8.410604627299e-03    7  5  6  2
 -2.288426274934e-03    7  5  6  4
  1.090132159204e-02    7  5  7  5
 -9.919799083778e-03    7  6  5  2
 -4.804621493022e-03    7  6  5  4
 -9.571080288647e-03    7  6  6  1
 -2.600726178385e-04    7  6  6  3
  1.162953525140e-02    7  6  7  6
  1.567148898353e-01    7  7  1  1
  1.617531689769e-01    7  7  2  2
  7.532801455835e-03    7  7  3  1
  1.548415288775e-01    7  7  3  3
 -3.828431038079e-03    7  7  4  2
  1.532212244079e-01    7  7  4  4
  1.504690172969e-01    7  7  5  5
  1.534103413808e-01    7  7  6  6
 -8.225904562154e-03    7  7  7  1
 -6.892047922879e-04    7  7  7  3
  1.667128398681e-01    7  7  7  7
 -6.552310797127e-03    8  1  5  1
  1.658700339833e-02    8  1  5  3
  3.108179314669e-03    8  1  6  2
 -1.520643253341e-02    8  1  6  4
 -2.632509906935e-03    8  1  7  5
  1.675198894755e-02    8  1  8  1
  5.785024335318e-03    8  2  5  2
 -1.252016198068e-02    8  2  5  4
  6.506811735669e-03    8  2  6  1
  1.579240821699e-02    8  2  6  3
  1.380171931455e-03    8  2  7  6
  1.710592227803e-02    8  2  8  2
  2.451632941366e-02    8  3  5  1
  1.822825488826e-03    8  3  5  3
  2.525386959986e-02    8  3  6  2
 -5.688053208914e-03    8  3  6  4
  3.040437270851e-03    8  3  7  5
  5.014645604067e-03    8  3  8  1
  3.028299932682e-02    8  3  8  3
 -1.953690590221e-02    8  4  5  2
 -4.336261833893e-04    8  4  5  4
 -1.989854691155e-02    8  4  6  1
 -1.092561248988e-02    8  4  6  3
 -8.525718922415e-04    8  4  7  6
 -1.180815921096e-02    8  4  8  2
  2.399454140110e-02    8  4  8  4
 -2.189868959462e-02    8  5  1  1
 -2.372695555370e-03    8  5  2  2
  3.679887667682e-02    8  5  3  1
 -5.339333707697e-03    8  5  3  3
 -3.259653676922e-02    8  5  4  2
 -9.077497094357e-03    8  5  4  4
 -2.359093163660e-02    8  5  5  5
 -1.949216512061e-03    8  5  6  6
 -5.927753271720e-03    8  5  7  1
  2.350498117526e-02    8  5  7  3
  3.536511926438e-03    8  5  7  7
  3.467307707582e-02    8  5  8  5
  2.615313208890e-02    8  6  2  1
  3.585736911031e-02    8  6  3  2
 -2.366315021537e-02    8  6  4  1
 -3.111313038979e-02    8  6  4  3
  2.448005692002e-02    8  6  6  5
 -6.806050349220e-04    8  6  7  2
 -2.492512072524e-02    8  6  7  4
  3.978887747242e-02    8  6  8  6
 -2.491740020645e-03    8  7  5  1
  7.847492011097e-03    8  7  5  3
  2.319186015006e-03    8  7  6  2
 -7.165896277059e-03    8  7  6  4
  7.780062322874e-04    8  7  7  5
  7.951352004285e-03    8  7  8  1
  4.947206464020e-03    8  7  8  3
  9.804902884174e-03    8  7  8  7
  1.487143791884e-01    8  8  1  1
  1.513103270656e-01    8  8  2  2
  5.957736088660e-03    8  8  3  1
  1.540985530118e-01    8  8  3  3
 -7.199972214088e-03    8  8  4  2
  1.514869528571e-01    8  8  4  4
  1.474007893611e-01    8  8  5  5
  1.517940891006e-01    8  8  6  6
  1.457647740341e-03    8  8  7  1
  1.340478112334e-03    8  8  7  3
  1.486647532350e-01    8  8  7  7
  9.266460374216e-03    8  8  8  5
  1.594971787446e-01    8  8  8  8
  7.448933762826e-03    9  1  2  1
  1.149676410108e-02    9  1  3  2
 -7.914762603664e-03    9  1  4  1
  9.820211574015e-03    9  1  4  3
  6.914688289349e-03    9  1  6  5
 -2.084958341270e-02    9  1  7  2
  5.737898789306e-04    9  1  7  4
  7.035809522681e-03    9  1  8  6
  2.260246681408e-02    9  1  9  1
  6.664501470848e-03    9  2  1  1
  1.731856306183e-02    9  2  2  2
  1.390637228501e-02    9  2  3  1
 -5.663067664867e-03    9  2  3  3
 -2.781068030721e-03    9  2  4  2
 -9.902003454139e-03    9  2  4  4
  6.615082787858e-03    9  2  5  5
  1.471761679914e-02    9  2  6  6
 -2.420485715764e-02    9  2  7  1
 -9.579306931596e-03    9  2  7  3
  9.942357098106e-03    9  2  7  7
  8.344342812657e-03    9  2  8  5
  3.508172058925e-04    9  2  8  8
  2.742549098972e-02    9  2  9  2
  1.616901482673e-02    9  3  2  1
 -1.411377695786e-02    9  3  3  2
  2.416536750650e-02    9  3  4  1
  1.260552551267e-03    9  3  4  3
  1.433202078264e-02    9  3  6  5
 -1.879209673256e-02    9  3  7  2
  2.095795980299e-02    9  3  7  4
 -1.299200402026e-02    9  3  8  6
  4.081197062791e-03    9  3  9  1
  2.947168466301e-02    9  3  9  3
 -2.996091345589e-02    9  4  1  1
 -1.214561175107e-02    9  4  2  2
  3.557812671226e-02    9  4  3  1
 -9.289558077422e-03    9  4  3  3
 -3.395125093403e-02    9  4  4  2
 -1.063606593517e-02    9  4  4  4
 -2.879687383042e-02    9  4  5  5
 -1.124195156456e-02    9  4  6  6
  6.679651165188e-04    9  4  7  1
  3.397986075332e-02    9  4  7  3
  3.969398563022e-03    9  4  7  7
  2.788166893677e-02    9  4  8  5
  5.213536182431e-04    9  4  8  8
 -7.392876019742e-05    9  4  9  2
  3.913962846575e-02    9  4  9  4
  2.524864705833e-03    9  5  5  2
 -3.824269498161e-03    9  5  5  4
  2.550973067068e-03    9  5  6  1
  4.721149522548e-03    9  5  6  3
 -7.599106659528e-03    9  5  7  6
  3.856997406684e-03    9  5  8  2
  3.314433116792e-03    9  5  8  4
  8.777297731018e-03    9  5  9  5
  2.391350270990e-03    9  6  5  1
  4.989893224594e-03    9  6  5  3
  6.111839178087e-03    9  6  6  2
 -5.815625803315e-04    9  6  6  4
 -8.723734586783e-03    9  6  7  5
  3.564762974363e-03    9  6  8  1
 -2.150831625327e-03    9  6  8  3
 -3.027559759127e-03    9  6  8  7
  9.501848082460e-03    9  6  9  6
 -7.265494763528e-02    9  7  2  1
 -4.177210780990e-02    9  7  3  2
  4.671806076749e-03    9  7  4  1
  6.531474476964e-02    9  7  4  3
 -6.492176814363e-02    9  7  6  5
  1.710672446284e-02    9  7  7  2
  3.590267045841e-02    9  7  7  4
 -3.662115819587e-02    9  7  8  6
 -6.716496885465e-03    9  7  9  1
 -7.570910290677e-04    9  7  9  3
  8.441187188983e-02    9  7  9  7
  4.169596876199e-03    9  8  5  2
  7.128802269914e-03    9  8  5  4
  3.750176774608e-03    9  8  6  1
 -4.790639521189e-03    9  8  6  3
 -5.305324243898e-03    9  8  7  6
 -5.303321059387e-03    9  8  8  2
  2.069473516673e-03    9  8  8  4
  7.542464350640e-04    9  8  9  5
  7.865963971928e-03    9  8  9  8
  1.664133906483e-01    9  9  1  1
  1.663277025148e-01    9  9  2  2
 -2.854503223827e-03    9  9  3  1
  1.595512464474e-01    9  9  3  3
  6.073346350152e-03    9  9  4  2
  1.595488658767e-01    9  9  4  4
  1.580358420343e-01    9  9  5  5
  1.565434358085e-01    9  9  6  6
 -7.281664695066e-03    9  9  7  1
 -9.589496111790e-03    9  9  7  3
  1.667462974351e-01    9  9  7  7
 -3.581275124863e-03    9  9  8  5
  1.492359610555e-01    9  9  8  8
  8.036261944618e-03    9  9  9  2
 -8.299541842414e-03    9  9  9  4
  1.722356734604e-01    9  9  9  9
 -7.219048461154e-03    10  1  5  2
 -1.591787808650e-02    10  1  5  4
 -6.470259468356e-03    10  1  6  1
  1.190057497072e-02    10  1  6  3
  5.672748019437e-03    10  1  7  6
  1.354596035772e-02    10  1  8  2
 -1.454439237087e-03    10  1  8  4
  2.914254356130e-03    10  1  9  5
 -6.930016065347e-03    10  1  9  8
  1.645346492943e-02    10  1  10  1
 -8.924803794736e-03    10  2  5  1
  1.431448437526e-02    10  2  5  3
 -1.741814189204e-03    10  2  6  2
 -1.725881016126e-02    10  2  6  4
  3.113110976233e-03    10  2  7  5
  1.574729107730e-02    10  2  8  1
  6.540759117836e-03    10  2  8  3
  7.049259798065e-03    10  2  8  7
  1.404168167176e-04    10  2  9  6
  1.832447843382e-02    10  2  10  2
  1.799085613966e-02    10  3  5  2
  1.642289228773e-04    10  3  5  4
  1.834352776988e-02    10  3  6  1
  1.032394893803e-02    10  3  6  3
  1.041307549094e-03    10  3  7  6
  1.126512631767e-02    10  3  8  2
 -2.242773948773e-02    10  3  8  4
 -3.233482528172e-03    10  3  9  5
 -1.665549812392e-03    10  3  9  8
  1.697588625695e-03    10  3  10  1
  2.102966709334e-02    10  3  10  3
 -2.673076611310e-02    10  4  5  1
  7.758833548611e-04    10  4  5  3
 -2.704750699809e-02    10  4  6  2
 -1.986048084187e-04    10  4  6  4
 -2.389640158249e-04    10  4  7  5
 -1.347386340725e-03    10  4  8  1
 -2.736008596975e-02    10  4  8  3
 -5.786772702610e-03    10  4  8  7
  2.843002161449e-03    10  4  9  6
 -8.575570998939e-05    10  4  10  2
  2.906211452832e-02    10  4  10  4
 -1.360049368546e-02    10  5  2  1
  1.944905391838e-02    10  5  3  2
 -2.788156341574e-02    10  5  4  1
  1.212400676475e-03    10  5  4  3
 -1.558958302610e-02    10  5  6  5
  1.079995927164e-02    10  5  7  2
 -1.143114221791e-02    10  5  7  4
  2.399833786779e-02    10  5  8  6
  4.294285710520e-03    10  5  9  1
 -1.899607671176e-02    10  5  9  3
 -9.295553126431e-06    10  5  9  7
  3.038897876760e-02    10  5  10  5
 -2.456013441006e-02    10  6  1  1
 -9.063879688138e-03    10  6  2  2
  3.305497134453e-02    10  6  3  1
 -1.067428251945e-03    10  6  3  3
 -3.519211548769e-02    10  6  4  2
 -7.786610647457e-03    10  6  4  4
 -2.755561585858e-02    10  6  5  5
 -9.366943158924e-03    10  6  6  6
  3.693341215877e-03    10  6  7  1
  2.398628967380e-02    10  6  7  3
  1.352439202612e-03    10  6  7  7
  3.405223450364e-02    10  6  8  5
  1.194548753325e-02    10  6  8  8
  9.746472879639e-04    10  6  9  2
  2.771453540143e-02    10  6  9  4
 -5.739118817776e-03    10  6  9  9
  3.968200673626e-02    10  6  10  6
  7.532999722347e-03    10  7  5  2
 -2.660020367175e-03    10  7  5  4
  7.830989639425e-03    10  7  6  1
  6.837644907824e-03    10  7  6  3
  3.919622475111e-04    10  7  7  6
  6.789073311051e-03    10  7  8  2
 -9.969301658359e-03    10  7  8  4
  4.300783300173e-04    10  7  9  5
 -5.529008140344e-03    10  7  9  8
  2.717516118394e-03    10  7  10  1
  8.903260716060e-03    10  7  10  3
  8.467339233033e-03    10  7  10  7
  6.410645345020e-02    10  8  2  1
  3.768394941766e-02    10  8  3  2
 -5.145647202971e-03    10  8  4  1
 -6.439450440732e-02    10  8  4  3
  6.417250195190e-02    10  8  6  5
 -6.728140270479e-03    10  8  7  2
 -3.297677637464e-02    10  8  7  4
  4.069432995179e-02    10  8  8  6
 -1.575963316005e-03    10  8  9  1
 -2.039479025968e-03    10  8  9  3
 -6.600253188422e-02    10  8  9  7
  3.349332806747e-03    10  8  10  5
  7.406618632467e-02    10  8  10  8
  4.761703992801e-03    10  9  5  1
 -8.031929776926e-03    10  9  5  3
  2.346487493497e-04    10  9  6  2
  7.741118768081e-03    10  9  6  4
  1.794119166106e-04    10  9  7  5
 -7.818602131145e-03    10  9  8  1
 -1.723940011075e-03    10  9  8  3
 -7.324670581215e-03    10  9  8  7
  1.335168644072e-04    10  9  9  6
 -7.440641108251e-03    10  9  10  2
  6.538532692939e-04    10  9  10  4
  7.549988229495e-03    10  9  10  9
  1.564105643443e-01    10  10  1  1
  1.559916052430e-01    10  10  2  2
 -2.860145726987e-03    10  10  3  1
  1.518058697146e-01    10  10  3  3
  5.417763282667e-03    10  10  4  2
  1.545708060941e-01    10  10  4  4
  1.571808812824e-01    10  10  5  5
  1.577635676208e-01    10  10  6  6
 -2.901722716639e-03    10  10  7  1
 -3.709583500348e-03    10  10  7  3
  1.478637533931e-01    10  10  7  7
 -1.474632451845e-03    10  10  8  5
  1.541307377937e-01    10  10  8  8
  7.564171657567e-04    10  10  9  2
 -7.041469659560e-03    10  10  9  4
  1.507294032958e-01    10  10  9  9
 -4.154564902924e-03    10  10  10  6
  1.578976070015e-01    10  10  10  10
 -7.033525377477e-04    11  1  5  1
 -6.692669482258e-03    11  1  5  3
 -7.032003955671e-03    11  1  6  2
 -2.700086929999e-03    11  1  6  4
  1.182848227816e-02    11  1  7  5
 -3.839892241533e-03    11  1  8  1
  5.716499090683e-03    11  1  8  3
 -3.153893551715e-03    11  1  8  7
 -6.657293132977e-03    11  1  9  6
  3.740348640735e-03    11  1  10  2
  2.407092265547e-04    11  1  10  4
  1.765168592226e-03    11  1  10  9
  1.676895586194e-02    11  1  11  1
 -1.055260460927e-02    11  2  5  2
 -6.400926141338e-03    11  2  5  4
 -1.024270244475e-02    11  2  6  1
  9.010300561113e-04    11  2  6  3
  9.279839623188e-03    11  2  7  6
  2.518082319410e-03    11  2  8  2
  1.654272107285e-03    11  2  8  4
 -4.758491497451e-03    11  2  9  5
 -3.142475263008e-03    11  2  9  8
  7.275682787555e-03    11  2  10  1
 -1.131008181487e-03    11  2  10  3
 -2.043791050307e-03    11  2  10  7
  9.245635639571e-03    11  2  11  2
 -9.750005825784e-03    11  3  5  1
  1.192263101437e-02    11  3  5  3
 -1.503093932483e-03    11  3  6  2
 -6.572615460688e-03    11  3  6  4
 -4.513713178049e-03    11  3  7  5
  1.045975308896e-02    11  3  8  1
 -4.397372097300e-03    11  3  8  3
  9.035043412301e-03    11  3  8  7
  3.995903522402e-04    11  3  9  6
  6.397691648749e-03    11  3  10  2
  1.212868805990e-03    11  3  10  4
 -6.017147766601e-03    11  3  10  9
 -1.120257062732e-02    11  3  11  1
  1.605480206518e-02    11  3  11  3
 -8.180174364209e-03    11  4  5  2
 -3.421063927488e-04    11  4  5  4
 -8.326510224595e-03    11  4  6  1
 -4.059540389261e-03    11  4  6  3
  2.464504999003e-03    11  4  7  6
 -3.625956655109e-03    11  4  8  2
  7.136816523753e-03    11  4  8  4
 -1.561075211553e-03    11  4  9  5
  2.557662130719e-03    11  4  9  8
  5.727249872084e-04    11  4  10  1
 -6.346823259594e-03    11  4  10  3
 -6.083495365796e-03    11  4  10  7
  4.422449383410e-03    11  4  11  2
  6.035661202323e-03    11  4  11  4
 -5.945351183400e-04    11  5  1  1
 -1.230350620273e-02    11  5  2  2
 -1.422317144485e-02    11  5  3  1
  9.843180450910e-03    11  5  3  3
  5.782318781502e-04    11  5  4  2
  3.284995395531e-03    11  5  4  4
 -3.119096082073e-03    11  5  5  5
 -1.435663347703e-02    11  5  6  6
  1.958627870402e-02    11  5  7  1
 -5.102185308368e-03    11  5  7  3
 -4.192475028123e-03    11  5  7  7
 -7.578444348465e-03    11  5  8  5
  3.809930640203e-03    11  5  8  8
 -1.455124679652e-02    11  5  9  2
 -6.037063657318e-03    11  5  9  4
 -3.029772731115e-03    11  5  9  9
  5.578198928214e-03    11  5  10  6
 -6.011349402838e-03    11  5  10  10
  2.925312242953e-02    11  5  11  5
 -2.547739110132e-02    11  6  2  1
 -2.139613141044e-03    11  6  3  2
 -1.152723498428e-02    11  6  4  1
  9.432854555499e-03    11  6  4  3
 -2.732795938487e-02    11  6  6  5
  1.799290302851e-02    11  6  7  2
  1.763379654609e-03    11  6  7  4
  2.906403296329e-03    11  6  8  6
 -8.210610549591e-03    11  6  9  1
 -1.108237176343e-02    11  6  9  3
  1.736887789140e-02    11  6  9  7
  1.639529224701e-02    11  6  10  5
 -1.269216561817e-02    11  6  10  8
  1.855404449928e-02    11  6  11  6
  2.290177836557e-02    11  7  5  1
 -6.720919439881e-03    11  7  5  3
  1.885400638515e-02    11  7  6  2
  4.602378971119e-03    11  7  6  4
 -2.839334724291e-04    11  7  7  5
 -5.370640024492e-03    11  7  8  1
  1.753568265423e-02    11  7  8  3
 -2.199650798480e-03    11  7  8  7
  1.406526786470e-03    11  7  9  6
 -4.932141986746e-03    11  7  10  2
 -1.661220885018e-02    11  7  10  4
  1.518120102741e-03    11  7  10  9
  4.427229945353e-03    11  7  11  1
 -1.127284678442e-02    11  7  11  3
  1.924806977814e-02    11  7  11  7
 -1.299562232467e-02    11  8  1  1
  4.845001745008e-04    11  8  2  2
  2.238307089401e-02    11  8  3  1
 -7.410836793790e-03    11  8  3  3
 -1.520600803456e-02    11  8  4  2
 -3.075309658667e-03    11  8  4  4
 -1.190731041237e-02    11  8  5  5
  3.050589935523e-03    11  8  6  6
 -7.129695313561e-03    11  8  7  1
  1.871398508145e-02    11  8  7  3
  4.702139655209e-04    11  8  7  7
  1.864286049509e-02    11  8  8  5
  2.120954884532e-03    11  8  8  8
  3.595929184747e-03    11  8  9  2
  1.786845939642e-02    11  8  9  4
 -3.242423831468e-03    11  8  9  9
  1.231100170281e-02    11  8  10  6
  3.642388222111e-03    11  8  10  10
 -1.793184734605e-02    11  8  11  5
  2.024438981830e-02    11  8  11  8
 -9.286945984235e-03    11  9  5  2
 -1.890947664287e-03    11  9  5  4
 -9.213843360979e-03    11  9  6  1
 -3.378575234780e-03    11  9  6  3
  3.040765832935e-03    11  9  7  6
 -3.072876593367e-03    11  9  8  2
  7.585482655636e-03    11  9  8  4
 -8.872235238017e-04    11  9  9  5
 -9.393113584202e-04    11  9  9  8
  1.464838896858e-03    11  9  10  1
 -6.917546597689e-03    11  9  10  3
 -3.087151214808e-03    11  9  10  7
  2.707759608371e-03    11  9  11  2
  1.803699651442e-03    11  9  11  4
  5.018448293920e-03    11  9  11  9
  3.054309393382e-02    11  10  2  1
  1.436270252523e-02    11  10  3  2
  1.203874025213e-03    11  10  4  1
 -2.435575239406e-02    11  10  4  3
  3.279755935974e-02    11  10  6  5
 -8.796522718438e-03    11  10  7  2
 -1.518977184418e-02    11  10  7  4
  1.198845056408e-02    11  10  8  6
  3.264713092197e-03    11  10  9  1
 -3.227292671724e-04    11  10  9  3
 -2.814407309043e-02    11  10  9  7
 -6.096369332270e-03    11  10  10  5
  3.008335276549e-02    11  10  10  8
 -1.354850796868e-02    11  10  11  6
  1.838202441234e-02    11  10  11  10
  1.816542923720e-01    11  11  1  1
  1.547682115314e-01    11  11  2  2
 -4.817054367521e-02    11  11  3  1
  1.606813820129e-01    11  11  3  3
  3.907434628858e-02    11  11  4  2
  1.560642917216e-01    11  11  4  4
  1.843072379534e-01    11  11  5  5
  1.535335433448e-01    11  11  6  6
  6.727898481681e-03    11  11  7  1
 -4.066084341887e-02    11  11  7  3
  1.468368173476e-01    11  11  7  7
 -4.403845386487e-02    11  11  8  5
  1.441156061757e-01    11  11  8  8
 -2.937658550750e-03    11  11  9  2
 -3.948175395255e-02    11  11  9  4
  1.532410663150e-01    11  11  9  9
 -3.761013267687e-02    11  11  10  6
  1.496827413061e-01    11  11  10  10
  2.374343160817e-02    11  11  11  5
 -3.637216274559e-02    11  11  11  8
  2.312022046428e-01    11  11  11  11
 -1.067410162806e-03    12  1  1  1
 -1.419732133777e-03    12  1  2  2
  2.440486043372e-03    12  1  3  1
  3.271827370843e-03    12  1  3  3
 -6.764953214641e-03    12  1  4  2
 -5.394375617284e-03    12  1  4  4
 -2.684399756583e-03    12  1  5  5
 -4.067482340509e-03    12  1  6  6
  1.370906473576e-03    12  1  7  1
 -5.234595358944e-03    12  1  7  3
  2.966558562384e-03    12  1  7  7
  3.505209428089e-03    12  1  8  5
  3.722980531616e-03    12  1  8  8
  5.146944115656e-03    12  1  9  2
  8.546396318451e-04    12  1  9  4
  7.384587632665e-04    12  1  9  9
  9.759153030969e-03    12  1  10  6
 -5.517558020704e-03    12  1  10  10
  1.418774206426e-02    12  1  11  5
 -9.957797893765e-03    12  1  11  8
  1.214899008624e-02    12  1  11  11
  1.543767530430e-02    12  1  12  1
 -5.408287136888e-03    12  2  2  1
  8.534145524047e-03    12  2  3  2
 -1.170809844263e-02    12  2  4  1
  6.731188739444e-03    12  2  4  3
 -8.024300401326e-03    12  2  6  5
 -3.389891690228e-03    12  2  7  2
  1.163179374061e-03    12  2  7  4
  9.535894515675e-03    12  2  8  6
  9.244414728143e-03    12  2  9  1
 -1.727424446048e-03    12  2  9  3
  3.486648961368e-04    12  2  9  7
  1.356006405720e-02    12  2  10  5
 -3.967378913549e-03    12  2  10  8
  6.209779430552e-03    12  2  11  6
 -5.939423437353e-03    12  2  11  10
  1.107009496550e-02    12  2  12  2
  4.557847641326e-03    12  3  1  1
  1.171233794397e-02    12  3  2  2
  8.063900897422e-03    12  3  3  1
 -2.433244497752e-03    12  3  3  3
  7.369886309716e-04    12  3  4  2
  1.627042248297e-03    12  3  4  4
  3.692321743062e-03    12  3  5  5
  1.178524226331e-02    12  3  6  6
 -1.272684186977e-02    12  3  7  1
 -4.943073603547e-04    12  3  7  3
  2.631360627549e-03    12  3  7  7
  7.044592049375e-03    12  3  8  5
  2.141690731322e-03    12  3  8  8
  9.719634676122e-03    12  3  9  2
 -2.092019355676e-03    12  3  9  4
  5.568399176377e-03    12  3  9  9
 -5.587490221340e-04    12  3  10  6
  6.961380540660e-03    12  3  10  10
 -1.758031304358e-02    12  3  11  5
  1.175289374983e-02    12  3  11  8
 -1.886663165047e-02    12  3  11  11
 -8.977544420817e-03    12  3  12  1
  1.563653218882e-02    12  3  12  3
 -2.384744346702e-02    12  4  2  1
  2.063075608325e-03    12  4  3  2
 -1.519852600208e-02    12  4  4  1
  1.311962145074e-02    12  4  4  3
 -2.498901095869e-02    12  4  6  5
  1.200202691273e-02    12  4  7  2
 -2.848222566837e-03    12  4  7  4
  2.222490183739e-03    12  4  8  6
 -7.686892110167e-04    12  4  9  1
 -1.468532089818e-02    12  4  9  3
  1.274795198799e-02    12  4  9  7
  1.508302234936e-02    12  4  10  5
 -1.549246775519e-02    12  4  10  8
  1.314329454316e-02    12  4  11  6
 -1.048940873311e-02    12  4  11  10
  6.756873643551e-03    12  4  12  2
  1.479167633282e-02    12  4  12  4
 -2.676731259535e-03    12  5  5  1
 -4.571685883934e-04    12  5  5  3
 -5.323960422165e-03    12  5  6  2
 -7.034177305537e-03    12  5  6  4
  6.646357436145e-03    12  5  7  5
  1.634786288994e-03    12  5  8  1
  3.768351405038e-03    12  5  8  3
 -4.797533043645e-03    12  5  8  7
  6.967055153647e-04    12  5  9  6
  7.931550089437e-03    12  5  10  2
  4.957862159908e-03    12  5  10  4
  1.120584839786e-04    12  5  10  9
  1.418619586589e-02    12  5  11  1
 -1.108700049738e-02    12  5  11  3
  4.373333369060e-03    12  5  11  7
  1.894905606662e-02    12  5  12  5
 -7.471124494180e-03    12  6  5  2
 -1.015880078018e-02    12  6  5  4
 -7.146043775634e-03    12  6  6  1
  6.016651454635e-03    12  6  6  3
  2.372059920745e-03    12  6  7  6
  7.120635248934e-03    12  6  8  2
  3.583752897849e-03    12  6  8  4
  3.070055144268e-03    12  6  9  5
 -1.033293315480e-03    12  6  9  8
  1.062053390637e-02    12  6  10  1
 -2.884487434400e-03    12  6  10  3
 -2.816303357728e-03    12  6  10  7
  5.922347290792e-03    12  6  11  2
  4.391331102215e-03    12  6  11  4
  9.850807873188e-04    12  6  11  9
  1.067188439020e-02    12  6  12  6
  8.389728588954e-03    12  7  1  1
 -4.538667384800e-03    12  7  2  2
 -2.224114548575e-02    12  7  3  1
  1.579390967645e-03    12  7  3  3
  1.671250045938e-02    12  7  4  2
  8.015204978756e-04    12  7  4  4
  1.264301208223e-02    12  7  5  5
 -8.190720580085e-04    12  7  6  6
  7.181321974342e-03    12  7  7  1
 -1.412319907974e-02    12  7  7  3
 -9.078193069362e-03    12  7  7  7
 -1.911244513510e-02    12  7  8  5
 -2.178327539950e-03    12  7  8  8
 -6.751148020297e-03    12  7  9  2
 -1.572768293305e-02    12  7  9  4
 -7.459053345801e-03    12  7  9  9
 -1.566479410428e-02    12  7  10  6
  7.332262275300e-04    12  7  10  10
  1.098428252538e-02    12  7  11  5
 -1.399748932907e-02    12  7  11  8
  3.345791068987e-02    12  7  11  11
  2.822967334499e-03    12  7  12  1
 -9.524017137673e-03    12  7  12  3
  1.794835230731e-02    12  7  12  7
  3.600483165209e-03    12  8  5  1
  6.006558706838e-03    12  8  5  3
  9.022244878199e-03    12  8  6  2
  5.399304596185e-04    12  8  6  4
 -7.796903041108e-03    12  8  7  5
  4.710848512596e-03    12  8  8  1
  1.040279068715e-03    12  8  8  3
  2.860073186876e-03    12  8  8  7
  3.659398933591e-03    12  8  9  6
 -6.787573005040e-04    12  8  10  2
 -5.323592624531e-03    12  8  10  4
  2.734412196027e-04    12  8  10  9
 -1.206741189992e-02    12  8  11  1
  9.699269270259e-03    12  8  11  3
 -3.598099838875e-03    12  8  11  7
 -1.179555428893e-02    12  8  12  5
  1.220052546992e-02    12  8  12  8
  3.123402834685e-02    12  9  2  1
  1.548923126838e-02    12  9  3  2
  6.660497388125e-04    12  9  4  1
 -2.683341043882e-02    12  9  4  3
  2.745765533405e-02    12  9  6  5
 -8.530531409190e-03    12  9  7  2
 -1.237700008378e-02    12  9  7  4
  1.363453223353e-02    12  9  8  6
  2.725482344153e-03    12  9  9  1
  3.445258171263e-03    12  9  9  3
 -3.431175737229e-02    12  9  9  7
 -1.693983916396e-03    12  9  10  5
  2.664680775891e-02    12  9  10  8
 -7.890686473611e-03    12  9  11  6
  1.139353465027e-02    12  9  11  10
 -5.560078447855e-04    12  9  12  2
 -7.427470349351e-03    12  9  12  4
  1.532387519430e-02    12  9  12  9
  1.536322858746e-02    12  10  5  2
  8.863984529932e-03    12  10  5  4
  1.514240373454e-02    12  10  6  1
 -3.658051913188e-04    12  10  6  3
 -6.729176943428e-03    12  10  7  6
 -1.277160531934e-03    12  10  8  2
 -9.238500184050e-03    12  10  8  4
  4.504687969601e-04    12  10  9  5
  3.998870742769e-03    12  10  9  8
 -8.746357880206e-03    12  10  10  1
  8.464639065290e-03    12  10  10  3
  3.159714314294e-03    12  10  10  7
 -8.277921586131e-03    12  10  11  2
 -5.820455922302e-03    12  10  11  4
 -3.206460011457e-03    12  10  11  9
 -8.545573565213e-03    12  10  12  6
  1.262437202024e-02    12  10  12  10
  3.383727687857e-02    12  11  5  1
 -2.283362069648e-02    12  11  5  3
  1.905909923971e-02    12  11  6  2
  1.433605704382e-02    12  11  6  4
  6.993856229373e-03    12  11  7  5
 -1.976899177760e-02    12  11  8  1
  2.229882594257e-02    12  11  8  3
 -1.010118362229e-02    12  11  8  7
 -3.032363342401e-03    12  11  9  6
 -1.463008551003e-02    12  11  10  2
 -1.995878460618e-02    12  11  10  4
  7.693408892389e-03    12  11  10  9
  1.710864711007e-02    12  11  11  1
 -2.811852386278e-02    12  11  11  3
  3.172026975217e-02    12  11  11  7
  1.347500955377e-02    12  11  12  5
 -1.503620511379e-02    12  11  12  8
  7.328435547211e-02    12  11  12  11
  1.831126386735e-01    12  12  1  1
  1.573318461936e-01    12  12  2  2
 -4.668455997594e-02    12  12  3  1
  1.621044406802e-01    12  12  3  3
  3.855805569675e-02    12  12  4  2
  1.583177718942e-01    12  12  4  4
  1.850209937219e-01    12  12  5  5
  1.552057715038e-01    12  12  6  6
  5.738824423489e-03    12  12  7  1
 -3.976797062338e-02    12  12  7  3
  1.487469006355e-01    12  12  7  7
 -4.300296344411e-02    12  12  8  5
  1.455582321090e-01    12  12  8  8
 -2.515916370453e-03    12  12  9  2
 -3.928689146282e-02    12  12  9  4
  1.558515279641e-01    12  12  9  9
 -3.714882706739e-02    12  12  10  6
  1.515495091325e-01    12  12  10  10
  2.227959107353e-02    12  12  11  5
 -3.483776814214e-02    12  12  11  8
  2.294404940027e-01    12  12  11  11
  1.098244724041e-02    12  12  12  1
 -1.683109258006e-02    12  12  12  3
  3.147261589681e-02    12  12  12  7
  2.297950606570e-01    12  12  12  12
 -8.127829278486e-05    13  1  2  1
 -3.142974064539e-04    13  1  3  2
  5.872553354556e-04    13  1  4  1
 -4.365195446936e-03    13  1  4  3
 -2.374534866040e-03    13  1  6  5
  3.762065752239e-03    13  1  7  2
  6.128131160250e-03    13  1  7  4
  6.227882970277e-03    13  1  8  6
 -4.375626480492e-03    13  1  9  1
  5.842236315963e-03    13  1  9  3