 &FCI NORB=22 ,NELEC=22 ,MS2=0,
  ORBSYM=5,2,5,6,7,8,5,7,6,8,7,5,6,8,5,7,3,5,8,7,8,7,
  ISYM=1,
 &END
  1.912468869925e-01    1  1  1  1
  2.011352125292e-03    2  1  2  1
  1.716337598536e-01    2  2  1  1
  1.774547246073e-01    2  2  2  2
 -3.088505442817e-02    3  1  1  1
 -2.582304438759e-02    3  1  2  2
  4.245211845125e-02    3  1  3  1
 -9.503499728706e-04    3  2  2  1
  1.868496062247e-03    3  2  3  2
  1.603399293191e-01    3  3  1  1
  1.537250522662e-01    3  3  2  2
 -6.048797720243e-03    3  3  3  1
  1.605289327058e-01    3  3  3  3
  2.808317012409e-02    4  1  4  1
  2.171210394796e-03    4  2  4  2
 -3.685560100056e-04    4  3  4  1
  5.803902812449e-02    4  3  4  3
  1.553727798047e-01    4  4  1  1
  1.532079077519e-01    4  4  2  2
 -5.015015682412e-03    4  4  3  1
  1.565752990295e-01    4  4  3  3
  1.611917430017e-01    4  4  4  4
  3.824316920605e-02    5  1  5  1
  1.639382154739e-03    5  2  5  2
 -1.303025507426e-02    5  3  5  1
  1.822145039468e-02    5  3  5  3
  1.428246982328e-02    5  4  5  4
  1.886335970674e-01    5  5  1  1
  1.705849597557e-01    5  5  2  2
 -3.452376020934e-02    5  5  3  1
  1.561887939058e-01    5  5  3  3
  1.512318945168e-01    5  5  4  4
  1.915858353113e-01    5  5  5  5
 -9.008689069861e-03    6  1  5  4
  2.346175340278e-02    6  1  6  1
  9.875308486374e-04    6  2  6  2
  7.530710704339e-03    6  3  5  4
  1.032928238415e-02    6  3  6  1
  1.680845718016e-02    6  3  6  3
 -1.057257410897e-02    6  4  5  1
  1.146431779847e-02    6  4  5  3
  1.611293067014e-02    6  4  6  4
 -1.646402270725e-02    6  5  4  1
  4.317714489867e-02    6  5  4  3
  5.911871166101e-02    6  5  6  5
  1.611843680614e-01    6  6  1  1
  1.479702679482e-01    6  6  2  2
  4.218340431818e-03    6  6  3  1
  1.502372815719e-01    6  6  3  3
  1.480526350482e-01    6  6  4  4
  1.592200019130e-01    6  6  5  5
  1.656951454945e-01    6  6  6  6
 -2.669189676304e-03    7  1  1  1
  5.929279015748e-03    7  1  2  2
 -1.479543655757e-02    7  1  3  1
  4.867410236729e-03    7  1  3  3
  6.069251430861e-03    7  1  4  4
 -4.616926669776e-04    7  1  5  5
 -1.467822327023e-02    7  1  6  6
  2.122690457771e-02    7  1  7  1
  7.005546633377e-04    7  2  2  1
 -8.397956247642e-05    7  2  3  2
  1.557732331889e-03    7  2  7  2
 -3.420601649253e-02    7  3  1  1
 -1.832449905027e-02    7  3  2  2
  2.459268343130e-02    7  3  3  1
 -5.423921222821e-03    7  3  3  3
  4.310158281297e-03    7  3  4  4
 -3.463296250644e-02    7  3  5  5
 -1.171170983623e-02    7  3  6  6
  6.781605704569e-03    7  3  7  1
  3.613369309719e-02    7  3  7  3
  1.267027344792e-02    7  4  4  1
  4.338854887617e-02    7  4  4  3
  2.987575864678e-02    7  4  6  5
  4.571814968435e-02    7  4  7  4
  6.722711561661e-04    7  5  5  1
 -7.594291052658e-03    7  5  5  3
  3.452440612657e-03    7  5  6  4
  1.117817366082e-02    7  5  7  5
  6.727981439828e-03    7  6  5  4
 -9.097997465550e-03    7  6  6  1
 -3.140953014562e-04    7  6  6  3
  1.241430584741e-02    7  6  7  6
  1.530356946655e-01    7  7  1  1
  1.458538030873e-01    7  7  2  2
  7.937558820309e-03    7  7  3  1
  1.553474794741e-01    7  7  3  3
  1.542253118427e-01    7  7  4  4
  1.475001877419e-01    7  7  5  5
  1.523625097737e-01    7  7  6  6
 -6.072574628350e-03    7  7  7  1
  4.200956067559e-04    7  7  7  3
  1.636973869589e-01    7  7  7  7
 -8.739361034789e-03    8  1  5  1
  1.750203253793e-02    8  1  5  3
  1.105064998170e-02    8  1  6  4
 -7.535514212786e-03    8  1  7  5
  1.736746118952e-02    8  1  8  1
 -6.255845333627e-04    8  2  5  2
  1.256589680086e-03    8  2  8  2
  2.591561758259e-02    8  3  5  1
 -1.350770420645e-03    8  3  5  3
  6.666007115202e-03    8  3  6  4
  5.112327519186e-03    8  3  7  5
  2.379292790900e-03    8  3  8  1
  3.215888989502e-02    8  3  8  3
  1.124337107003e-03    8  4  5  4
  1.322316070623e-02    8  4  6  1
  1.272768602998e-02    8  4  6  3
  4.289738904777e-03    8  4  7  6
  1.837392269962e-02    8  4  8  4
 -2.688405442067e-02    8  5  1  1
 -2.205344595411e-02    8  5  2  2
  3.770139628528e-02    8  5  3  1
 -5.539040573400e-03    8  5  3  3
 -2.979435018965e-03    8  5  4  4
 -3.179262602371e-02    8  5  5  5
  6.022077090847e-03    8  5  6  6
 -1.344330996275e-02    8  5  7  1
  2.247988780800e-02    8  5  7  3
  4.682961970110e-03    8  5  7  7
  3.683948299937e-02    8  5  8  5
  1.196625075887e-02    8  6  4  1
  4.107192215317e-02    8  6  4  3
  3.745880674113e-02    8  6  6  5
  3.715488302782e-02    8  6  7  4
  4.868878332149e-02    8  6  8  6
 -1.059003265151e-02    8  7  5  1
  9.751519100535e-03    8  7  5  3
  9.895656298173e-03    8  7  6  4
  5.144281616764e-04    8  7  7  5
  9.202664288958e-03    8  7  8  1
  1.943049995997e-05    8  7  8  3
  1.287615049463e-02    8  7  8  7
  1.538250155884e-01    8  8  1  1
  1.477113607472e-01    8  8  2  2
 -1.440307227244e-03    8  8  3  1
  1.572259336277e-01    8  8  3  3
  1.498169393577e-01    8  8  4  4
  1.530197500059e-01    8  8  5  5
  1.514468713545e-01    8  8  6  6
  3.827920255501e-03    8  8  7  1
 -5.280361540738e-03    8  8  7  3
  1.492023385913e-01    8  8  7  7
 -1.240073673971e-03    8  8  8  5
  1.616943748236e-01    8  8  8  8
 -1.455338693254e-02    9  1  4  1
  1.648001752469e-02    9  1  4  3
  7.308925881593e-03    9  1  6  5
  1.408413278000e-03    9  1  7  4
 -5.793076633770e-03    9  1  8  6
  2.503146280824e-02    9  1  9  1
 -8.142168382176e-04    9  2  4  2
  2.708711432690e-03    9  2  9  2
  2.547815035555e-02    9  3  4  1
  2.776367300487e-03    9  3  4  3
 -1.721626150380e-02    9  3  6  5
  1.770447941383e-02    9  3  7  4
  5.766043776163e-03    9  3  8  6
 -6.551734654917e-03    9  3  9  1
  3.168181564733e-02    9  3  9  3
 -4.049173592048e-02    9  4  1  1
 -2.738961485988e-02    9  4  2  2
  3.810055823888e-02    9  4  3  1
 -7.014097405840e-03    9  4  3  3
 -2.636774677218e-03    9  4  4  4
 -4.110466241345e-02    9  4  5  5
 -9.331274818305e-03    9  4  6  6
 -2.083643109573e-03    9  4  7  1
  3.594966513409e-02    9  4  7  3
  7.037185016572e-03    9  4  7  7
  3.099506858361e-02    9  4  8  5
 -4.526762387201e-03    9  4  8  8
  4.787165451867e-02    9  4  9  4
 -7.333812968957e-03    9  5  5  4
  3.454999496305e-03    9  5  6  1
 -4.561310638034e-03    9  5  6  3
  4.022958693582e-03    9  5  7  6
  5.459754236984e-03    9  5  8  4
  1.046825794180e-02    9  5  9  5
  4.223014501236e-03    9  6  5  1
 -6.198955032685e-03    9  6  5  3
 -6.314422513497e-04    9  6  6  4
  6.415695633378e-03    9  6  7  5
 -5.598392086242e-03    9  6  8  1
  3.980550148957e-03    9  6  8  3
  3.192872417493e-03    9  6  8  7
  8.193551795242e-03    9  6  9  6
 -9.770244510862e-04    9  7  4  1
  5.433651929236e-02    9  7  4  3
  4.796551851788e-02    9  7  6  5
  4.468999002702e-02    9  7  7  4
  4.365236911970e-02    9  7  8  6
  5.748403273927e-03    9  7  9  1
 -2.200543798122e-03    9  7  9  3
  6.268217134041e-02    9  7  9  7
  8.082355680704e-03    9  8  5  4
 -6.166754676137e-03    9  8  6  1
  3.145338312918e-03    9  8  6  3
  6.720930773344e-03    9  8  7  6
  1.781739788114e-03    9  8  8  4
 -2.404618990094e-03    9  8  9  5
  8.749519241157e-03    9  8  9  8
  1.767690460110e-01    9  9  1  1
  1.652399307100e-01    9  9  2  2
 -1.734045937167e-02    9  9  3  1
  1.624730937607e-01    9  9  3  3
  1.613907543895e-01    9  9  4  4
  1.691608976454e-01    9  9  5  5
  1.541375065026e-01    9  9  6  6
  9.633917555674e-04    9  9  7  1
 -1.648950898693e-02    9  9  7  3
  1.597363191397e-01    9  9  7  7
 -1.451029183412e-02    9  9  8  5
  1.517670049390e-01    9  9  8  8
 -2.194252425735e-02    9  9  9  4
  1.779916541638e-01    9  9  9  9
  1.489091454691e-02    10  1  5  4
 -8.910906202667e-03    10  1  6  1
  8.359678615986e-03    10  1  6  3
  7.713527897359e-03    10  1  7  6
  2.470496597250e-03    10  1  8  4
 -6.754899979794e-03    10  1  9  5
  7.867556448862e-03    10  1  9  8
  1.582721791447e-02    10  1  10  1
 -3.122426805968e-04    10  2  6  2
  1.258841006987e-03    10  2  10  2
  1.754413727834e-04    10  3  5  4
  1.431161407434e-02    10  3  6  1
  1.261012214564e-02    10  3  6  3
  3.431363837068e-03    10  3  7  6
  1.836535364518e-02    10  3  8  4
  5.670131001529e-03    10  3  9  5
  1.049177750436e-03    10  3  9  8
  1.487296801127e-03    10  3  10  1
  1.852624377580e-02    10  3  10  3
  2.551019834588e-02    10  4  5  1
 -4.234991588595e-04    10  4  5  3
  1.701424437857e-03    10  4  6  4
  5.338747612504e-04    10  4  7  5
  3.274737144227e-03    10  4  8  1
  2.632307329584e-02    10  4  8  3
  3.644523505874e-03    10  4  8  7
  6.457091301519e-03    10  4  9  6
  2.900940931647e-02    10  4  10  4
  2.616731541476e-02    10  5  4  1
 -2.373068942789e-03    10  5  4  3
 -2.077747270476e-02    10  5  6  5
  5.900216944763e-03    10  5  7  4
  9.807812214237e-03    10  5  8  6
 -1.190379798272e-02    10  5  9  1
  2.084261301466e-02    10  5  9  3
 -4.442346063868e-03    10  5  9  7
  2.849443378007e-02    10  5  10  5
 -3.059215560405e-02    10  6  1  1
 -1.996448114002e-02    10  6  2  2
  2.856498289882e-02    10  6  3  1
  1.862408347009e-03    10  6  3  3
 -1.112416936071e-03    10  6  4  4
 -3.417463735397e-02    10  6  5  5
 -7.714613157491e-03    10  6  6  6
  5.039397313478e-03    10  6  7  1
  2.561868301880e-02    10  6  7  3
  1.411869280975e-03    10  6  7  7
  2.633746028139e-02    10  6  8  5
  8.763236648179e-03    10  6  8  8
  3.189385923070e-02    10  6  9  4
 -1.476112855636e-02    10  6  9  9
  3.923755964230e-02    10  6  10  6
  9.664218014712e-04    10  7  5  4
  1.051517057579e-02    10  7  6  1
  9.774723813722e-03    10  7  6  3
 -5.330239437409e-05    10  7  7  6
  1.078290601406e-02    10  7  8  4
  3.602309485929e-04    10  7  9  5
  4.044499905932e-03    10  7  9  8
  7.428362427204e-04    10  7  10  1
  1.073519739139e-02    10  7  10  3
  1.145751843809e-02    10  7  10  7
  4.299383874461e-03    10  8  4  1
  5.030424380894e-02    10  8  4  3
  4.118346501978e-02    10  8  6  5
  3.803975655852e-02    10  8  7  4
  4.503838129650e-02    10  8  8  6
  8.301091985107e-03    10  8  9  1
  2.810865954485e-03    10  8  9  3
  4.622097451654e-02    10  8  9  7
  3.114951779775e-03    10  8  10  5
  5.043399281403e-02    10  8  10  8
 -1.008188531198e-02    10  9  5  1
  9.993016354108e-03    10  9  5  3
  9.915318029741e-03    10  9  6  4
 -7.434664009816e-04    10  9  7  5
  9.058567852963e-03    10  9  8  1
  2.051670369284e-04    10  9  8  3
  8.400902725023e-03    10  9  8  7
 -1.698714924248e-03    10  9  9  6
 -5.096738280228e-04    10  9  10  4
  9.970544842445e-03    10  9  10  9
  1.566124204692e-01    10  10  1  1
  1.497588753054e-01    10  10  2  2
 -1.955323219244e-03    10  10  3  1
  1.508167856530e-01    10  10  3  3
  1.528534046432e-01    10  10  4  4
  1.561193350044e-01    10  10  5  5
  1.572057402294e-01    10  10  6  6
 -3.303856961363e-03    10  10  7  1
 -3.282688137912e-03    10  10  7  3
  1.479805881286e-01    10  10  7  7
  9.312636916335e-04    10  10  8  5
  1.511129197492e-01    10  10  8  8
 -7.837375239388e-03    10  10  9  4
  1.526563628329e-01    10  10  9  9
 -5.006520039756e-03    10  10  10  6
  1.575263532012e-01    10  10  10  10
  9.727897302284e-04    11  1  5  1
  6.266581140555e-03    11  1  5  3
 -6.892343552185e-03    11  1  6  4
 -1.261244261331e-02    11  1  7  5
  6.360526290019e-03    11  1  8  1
 -7.159769373326e-03    11  1  8  3
  2.839986389166e-04    11  1  8  7
 -4.511623268725e-03    11  1  9  6
  1.404704172044e-03    11  1  10  4
 -7.191188069282e-04    11  1  10  9
  1.610469808405e-02    11  1  11  1
 -3.330761828976e-04    11  2  5  2
  3.362016097094e-04    11  2  8  2
  1.444589928769e-03    11  2  11  2
  9.175835187948e-03    11  3  5  1
 -1.259166351118e-02    11  3  5  3
 -9.413463356569e-03    11  3  6  4
  2.981667515138e-03    11  3  7  5
 -1.244373902404e-02    11  3  8  1
 -7.166780169925e-04    11  3  8  3
 -1.247021976708e-02    11  3  8  7
 -1.205038526537e-03    11  3  9  6
 -5.266581653306e-03    11  3  10  4
 -7.432941490187e-03    11  3  10  9
 -4.052980520120e-03    11  3  11  1
  1.406626698640e-02    11  3  11  3
  1.473521227937e-03    11  4  5  4
 -1.392494433748e-02    11  4  6  1
 -1.001824534805e-02    11  4  6  3
  1.892306797887e-03    11  4  7  6
 -1.176777208646e-02    11  4  8  4
 -1.353655717594e-03    11  4  9  5
 -2.275236482808e-03    11  4  9  8
  1.706380806887e-03    11  4  10  1
 -1.213871337332e-02    11  4  10  3
 -1.188639775906e-02    11  4  10  7
  1.341261200045e-02    11  4  11  4
  1.458520371664e-03    11  5  1  1
 -3.512118497445e-03    11  5  2  2
  1.186005688643e-02    11  5  3  1
 -8.521480710254e-03    11  5  3  3
 -1.160156541465e-03    11  5  4  4
 -3.088722116311e-04    11  5  5  5
  1.441603319811e-02    11  5  6  6
 -1.961532174966e-02    11  5  7  1
 -2.197874353764e-04    11  5  7  3
  3.108456348444e-03    11  5  7  7
  1.375747709896e-02    11  5  8  5
 -1.143325795246e-02    11  5  8  8
  1.282059449819e-03    11  5  9  4
 -7.569625990218e-04    11  5  9  9
 -1.201399605233e-02    11  5  10  6
  7.030859276906e-03    11  5  10  10
  2.884017701865e-02    11  5  11  5
 -1.872525684998e-02    11  6  4  1
 -2.514263458551e-03    11  6  4  3
  2.107324459603e-02    11  6  6  5
 -2.875943457247e-03    11  6  7  4
 -3.050744333468e-03    11  6  8  6
 -8.596544879655e-04    11  6  9  1
 -1.699410735377e-02    11  6  9  3
  5.411263326117e-03    11  6  9  7
 -2.277677221937e-02    11  6  10  5
 -4.509267995936e-03    11  6  10  8
  2.489998073313e-02    11  6  11  6
 -2.527857226127e-02    11  7  5  1
  4.219999116992e-03    11  7  5  3
  1.963796248105e-03    11  7  6  4
 -1.491542330204e-04    11  7  7  5
  1.371243124305e-03    11  7  8  1
 -2.203026749021e-02    11  7  8  3
  3.322115547669e-03    11  7  8  7
 -2.045861657003e-03    11  7  9  6
 -2.079149769391e-02    11  7  10  4
  7.414560992795e-04    11  7  10  9
  5.257492950586e-06    11  7  11  1
 -3.292211903158e-03    11  7  11  3
  2.177002810179e-02    11  7  11  7
  2.748586722606e-02    11  8  1  1
  1.823655412572e-02    11  8  2  2
 -2.960921829372e-02    11  8  3  1
  4.903755142507e-03    11  8  3  3
 -2.257415053345e-03    11  8  4  4
  3.158058033884e-02    11  8  5  5
  2.376267737276e-04    11  8  6  6
  4.102117609532e-03    11  8  7  1
 -2.764273309923e-02    11  8  7  3
 -5.339462560901e-04    11  8  7  7
 -3.066222564157e-02    11  8  8  5
  2.623814253780e-03    11  8  8  8
 -2.831947797314e-02    11  8  9  4
  1.310965413276e-02    11  8  9  9
 -2.509210593082e-02    11  8  10  6
 -2.315954701406e-03    11  8  10  10
 -9.393628802594e-03    11  8  11  5
  3.186970151248e-02    11  8  11  8
 -5.315253850414e-04    11  9  5  4
 -6.409751333077e-03    11  9  6  1
 -6.225775569546e-03    11  9  6  3
  1.261286045856e-04    11  9  7  6
 -7.111600008007e-03    11  9  8  4
 -7.180826060881e-04    11  9  9  5
 -1.035564829816e-04    11  9  9  8
 -9.409709169775e-04    11  9  10  1
 -6.799466072876e-03    11  9  10  3
 -5.097779193625e-03    11  9  10  7
  4.690793652321e-03    11  9  11  4
  5.138686825408e-03    11  9  11  9
  4.536331444803e-03    11  10  4  1
 -4.024580814055e-02    11  10  4  3
 -4.668554430662e-02    11  10  6  5
 -3.486244192445e-02    11  10  7  4
 -3.650750386017e-02    11  10  8  6
 -4.400315349899e-03    11  10  9  1
  1.603951742169e-03    11  10  9  3
 -4.120025007021e-02    11  10  9  7
  1.042595166445e-02    11  10  10  5
 -3.902292743984e-02    11  10  10  8
 -1.235836614399e-02    11  10  11  6
  4.355402340335e-02    11  10  11  10
  1.752507494460e-01    11  11  1  1
  1.617020949253e-01    11  11  2  2
 -2.361814966837e-02    11  11  3  1
  1.528171699604e-01    11  11  3  3
  1.481641768786e-01    11  11  4  4
  1.799713986871e-01    11  11  5  5
  1.557936363907e-01    11  11  6  6
 -6.454564554738e-04    11  11  7  1
 -2.429365862123e-02    11  11  7  3
  1.486729805196e-01    11  11  7  7
 -2.392474934010e-02    11  11  8  5
  1.523232631187e-01    11  11  8  8
 -2.541938236016e-02    11  11  9  4
  1.586823999240e-01    11  11  9  9
 -2.490065297920e-02    11  11  10  6
  1.532326892461e-01    11  11  10  10
 -1.547193154649e-03    11  11  11  5
  2.539572418143e-02    11  11  11  8
  1.762898561644e-01    11  11  11  11
  3.825483917546e-04    12  1  1  1
  1.788275545377e-03    12  1  2  2
 -8.121519903245e-04    12  1  3  1
 -5.988750459217e-03    12  1  3  3
  4.351395193550e-03    12  1  4  4
  5.317562305220e-04    12  1  5  5
  3.109070846437e-03    12  1  6  6
 -3.962012905318e-03    12  1  7  1
  5.231329110482e-03    12  1  7  3
 -1.744209475924e-03    12  1  7  7
  2.169573926926e-03    12  1  8  5
 -1.044124185282e-02    12  1  8  8
 -1.375235980676e-03    12  1  9  4
  5.760148986583e-04    12  1  9  9
 -1.116505082146e-02    12  1  10  6
  5.287503155061e-03    12  1  10  10
  1.581528862731e-02    12  1  11  5
 -6.079735941292e-03    12  1  11  8
 -1.264328363355e-03    12  1  11  11
  1.552521939034e-02    12  1  12  1
  2.060754110498e-04    12  2  2  1
  3.276280097380e-04    12  2  3  2
  8.346050055724e-05    12  2  7  2
  1.575250660357e-03    12  2  12  2
 -1.000246326006e-03    12  3  1  1
  4.066424769947e-03    12  3  2  2
 -1.226542172048e-02    12  3  3  1
  1.441154828472e-03    12  3  3  3
  1.829189946884e-03    12  3  4  4
  2.666246682375e-03    12  3  5  5
 -1.270318632519e-02    12  3  6  6
  1.349355546919e-02    12  3  7  1
  2.615186253232e-03    12  3  7  3
 -4.336368088688e-04    12  3  7  7
 -1.489878836187e-02    12  3  8  5
 -1.062010902145e-03    12  3  8  8
  1.268103429691e-03    12  3  9  4
  4.899850922065e-05    12  3  9  9
 -2.794191232734e-03    12  3  10  6
 -6.413260394135e-03    12  3  10  10
 -1.388497693535e-02    12  3  11  5
  1.047407521959e-02    12  3  11  8
  5.512743684052e-03    12  3  11  11
 -3.445665294987e-03    12  3  12  1
  1.585288902235e-02    12  3  12  3
  1.557457661601e-02    12  4  4  1
 -2.704441079461e-03    12  4  4  3
 -2.091354225335e-02    12  4  6  5
  4.591850149288e-03    12  4  7  4
 -4.393530516962e-03    12  4  8  6
 -2.710064945741e-03    12  4  9  1
  1.721498620985e-02    12  4  9  3
 -2.789593580391e-03    12  4  9  7
  1.555286086866e-02    12  4  10  5
 -5.843171498727e-03    12  4  10  8
 -1.508770588709e-02    12  4  11  6
  1.317343719566e-02    12  4  11  10
  1.748383301563e-02    12  4  12  4
  4.928035884937e-04    12  5  5  1
  3.339815829569e-03    12  5  5  3
 -7.865374020824e-03    12  5  6  4
 -9.542975105642e-03    12  5  7  5
  3.476724991060e-03    12  5  8  1
 -8.319857190019e-03    12  5  8  3
  4.401890259362e-03    12  5  8  7
  1.500605407339e-03    12  5  9  6
  4.418510795865e-03    12  5  10  4
 -1.317143776678e-03    12  5  10  9
  1.535370838817e-02    12  5  11  1
 -6.975171825448e-03    12  5  11  3
  1.208006684835e-03    12  5  11  7
  2.020799603704e-02    12  5  12  5
 -1.078813838953e-02    12  6  5  4
  5.511445728568e-03    12  6  6  1
 -7.167038324793e-03    12  6  6  3
 -4.170007461967e-03    12  6  7  6
 -2.052050929294e-03    12  6  8  4
  5.181973177517e-03    12  6  9  5
 -1.340172519219e-03    12  6  9  8
 -1.232956480572e-02    12  6  10  1
 -1.485412621082e-03    12  6  10  3
  3.251088582234e-03    12  6  10  7
 -4.676785940791e-03    12  6  11  4
  1.222394706908e-03    12  6  11  9
  1.471632713449e-02    12  6  12  6
 -1.868765542183e-02    12  7  1  1
 -1.270048911454e-02    12  7  2  2
  2.403163413359e-02    12  7  3  1
  4.435461848416e-04    12  7  3  3
  3.514286024471e-03    12  7  4  4
 -2.508374644965e-02    12  7  5  5
 -3.024148594276e-03    12  7  6  6
 -3.684074289812e-03    12  7  7  1
  1.960431817316e-02    12  7  7  3
  9.282090724479e-03    12  7  7  7
  2.170607711723e-02    12  7  8  5
 -2.719631151480e-03    12  7  8  8
  2.491448425347e-02    12  7  9  4
 -1.704225114916e-03    12  7  9  9
  1.996003652880e-02    12  7  10  6
 -3.893421119733e-03    12  7  10  10
  3.610651541521e-03    12  7  11  5
 -2.003142086049e-02    12  7  11  8
 -2.101762639000e-02    12  7  11  11
  1.196666901949e-04    12  7  12  1
 -4.485531629940e-03    12  7  12  3
  2.217268344033e-02    12  7  12  7
  5.274362244263e-03    12  8  5  1
 -1.325224134894e-02    12  8  5  3
 -5.218804176938e-03    12  8  6  4
  8.257270489834e-03    12  8  7  5
 -1.363171143836e-02    12  8  8  1
  5.067002666500e-05    12  8  8  3
 -5.707886041582e-03    12  8  8  7
  4.291383166826e-03    12  8  9  6
 -3.037559601266e-03    12  8  10  4
 -2.158910803723e-03    12  8  10  9
 -8.691660807031e-03    12  8  11  1
  1.064223853925e-02    12  8  11  3
 -4.463634947104e-03    12  8  11  7
 -7.210750280530e-03    12  8  12  5
  1.665055657579e-02    12  8  12  8
 -2.013094509482e-03    12  9  4  1
  2.934912585388e-02    12  9  4  3
  2.747308454290e-02    12  9  6  5
  2.443018889906e-02    12  9  7  4
  2.291853122941e-02    12  9  8  6
  3.533968687778e-03    12  9  9  1
 -1.682618037927e-03    12  9  9  3
  3.345929209087e-02    12  9  9  7
 -4.553512640183e-03    12  9  10  5
  2.452452818135e-02    12  9  10  8
  5.078573085616e-03    12  9  11  6
 -2.380736817444e-02    12  9  11  10
 -3.385785672188e-03    12  9  12  4
  1.957905711640e-02    12  9  12  9
  9.201593480045e-03    12  10  5  4
 -1.794426243946e-02    12  10  6  1
 -5.178762025240e-03    12  10  6  3
  8.530722694401e-03    12  10  7  6
 -7.418777568788e-03    12  10  8  4
 -2.856977676602e-03    12  10  9  5
  5.282847908115e-03    12  10  9  8
  9.559625073065e-03    12  10  10  1
 -8.871195667690e-03    12  10  10  3
 -6.908541978820e-03    12  10  10  7
  1.096168827934e-02    12  10  11  4
  1.114252695494e-03    12  10  11  9
 -7.458429492220e-03    12  10  12  6
  1.899812363356e-02    12  10  12  10
  3.391197035470e-02    12  11  5  1
 -1.572802146522e-02    12  11  5  3
 -1.187706763312e-02    12  11  6  4
  2.484855743348e-03    12  11  7  5
 -1.236999235972e-02    12  11  8  1
  2.048780968381e-02    12  11  8  3
 -1.189561903395e-02    12  11  8  7
  4.085568637030e-03    12  11  9  6
  1.921608607021e-02    12  11  10  4
 -9.481889345942e-03    12  11  10  9
 -1.210260530959e-03    12  11  11  1
  1.233340889009e-02    12  11  11  3
 -2.272156304321e-02    12  11  11  7
 -1.706865556964e-03    12  11  12  5
  1.050455856486e-02    12  11  12  8
  3.987969888132e-02    12  11  12  11
  1.759211013620e-01    12  12  1  1
  1.628469315899e-01    12  12  2  2
 -2.211023642727e-02    12  12  3  1
  1.547768044950e-01    12  12  3  3
  1.503775651235e-01    12  12  4  4
  1.797903682621e-01    12  12  5  5
  1.567801589267e-01    12  12  6  6
 -8.107511462618e-04    12  12  7  1
 -2.314835173348e-02    12  12  7  3
  1.505970229330e-01    12  12  7  7
 -2.275648375673e-02    12  12  8  5
  1.533547972564e-01    12  12  8  8
 -2.457631146265e-02    12  12  9  4
  1.610119526008e-01    12  12  9  9
 -2.376988005516e-02    12  12  10  6
  1.542766235197e-01    12  12  10  10
 -1.353044325847e-03    12  12  11  5
  2.404928282114e-02    12  12  11  8
  1.754051771587e-01    12  12  11  11
 -1.200921710421e-03    12  12  12  1
  4.492994384308e-03    12  12  12  3
 -1.864168335408e-02    12  12  12  7
  1.766560120084e-01    12  12  12  12
 -9.515017132258e-04    13  1  4  1
  4.650182558340e-03    13  1  4  3
 -2.087354333027e-03    13  1  6  5
 -5.523609046687e-03    13  1  7  4
  2.721545803832e-03    13  1  8  6
  5.876045629250e-03    13  1  9  1
 -6.071968284081e-03    13  1  9  3
  8.245333541765e-04    13  1  9  7
  5.013796902190e-03    13  1  10  5
  5.844449079710e-03    13  1  10  8
 -8.887531609798e-03    13  1  11  6
  5.221017517835e-03    13  1  11  10
  4.744324716854e-04    13  1  12  4
 -8.957291136674e-04    13  1  12  9
  1.125385578840e-02    13  1  13  1
 -1.107952306376e-03    13  2  4  2
  7.441513092506e-04    13  2  9  2
  2.258551158855e-03    13  2  13  2
  6.629151884539e-03    13  3  4  1
 -5.320915795409e-03    13  3  4  3
  2.947888899794e-03    13  3  6  5
 -2.614573185039e-03    13  3  7  4
  1.060057707330e-02    13  3  8  6
 -1.166385934758e-02    13  3  9  1
 -1.059640533733e-04    13  3  9  3
 -5.442552039687e-03    13  3  9  7
  6.912822972867e-03    13  3  10  5
  4.681571820622e-03    13  3  10  8
 -1.028211745042e-03    13  3  11  6
 -3.495756241904e-03    13  3  11  10
 -6.032713436839e-03    13  3  12  4
 -2.759389818381e-03    13  3  12  9
  1.062286638364e-03    13  3  13  1
  1.464634974878e-02    13  3  13  3
 -4.182010508921e-04    13  4  1  1
 -6.610957807117e-03    13  4  2  2
  8.719364787506e-03    13  4  3  1
 -6.262666954914e-03    13  4  3  3
 -9.401150256938e-03    13  4  4  4
  2.793260505559e-03    13  4  5  5
  1.254651449121e-02    13  4  6  6
 -1.337601709493e-02    13  4  7  1
 -6.697787493286e-03    13  4  7  3
 -5.370277881482e-03    13  4  7  7
  9.189365252285e-03    13  4  8  5
  2.171829865754e-03    13  4  8  8
 -2.244100105866e-03    13  4  9  4
 -1.116827079183e-02    13  4  9  9
 -1.509557200335e-03    13  4  10  6
  6.029483070779e-03    13  4  10  10
  1.142074226842e-02    13  4  11  5
 -3.224119525801e-03    13  4  11  8
  4.274627592014e-03    13  4  11  11
  9.550026760222e-04    13  4  12  1
 -1.171590525278e-02    13  4  12  3
 -6.249314080903e-03    13  4  12  7
  3.326900060216e-03    13  4  12  12
  1.980243581572e-02    13  4  13  4
  5.926672315774e-03    13  5  5  4
 -4.159628633893e-03    13  5  6  1
  3.323479142940e-03    13  5  6  3
  6.684127130876e-03    13  5  7  6
  4.511462693667e-03    13  5  8  4
  1.452827671109e-03    13  5  9  5
 -2.602006865584e-04    13  5  9  8
  7.762035722167e-03    13  5  10  1
  4.083096534354e-03    13  5  10  3
 -3.671523438769e-03    13  5  10  7
  4.497564542759e-03    13  5  11  4
 -1.181422780077e-03    13  5  11  9
 -1.115096064202e-02    13  5  12  6
  6.056643894323e-03    13  5  12  10
  1.197810238498e-02    13  5  13  5
 -5.054926733283e-03    13  6  5  1
  5.479062703059e-03    13  6  5  3
  1.189629826132e-02    13  6  6  4
  5.354994609883e-03    13  6  7  5
  5.800381941254e-03    13  6  8  1
  8.105405616781e-03    13  6  8  3
  2.968315730189e-03    13  6  8  7
 -7.137664391888e-04    13  6  9  6
  2.967536906270e-04    13  6  10  4
  1.943185697696e-03    13  6  10  9
 -9.390381928267e-03    13  6  11  1
 -3.922535023700e-03    13  6  11  3
  3.968485619874e-03    13  6  11  7
 -1.178603047428e-02    13  6  12  5
 -6.419966496632e-03    13  6  12  8
 -7.763518589315e-03    13  6  12  11
  1.745500961944e-02    13  6  13  6
 -1.717143168339e-02    13  7  4  1
 -8.238750582571e-03    13  7  4  3
  1.063387578137e-02    13  7  6  5
 -1.509413386534e-02    13  7  7  4
 -5.962626896896e-03    13  7  8  6
  2.611459643144e-03    13  7  9  1
 -1.939477660203e-02    13  7  9  3
 -7.888324423650e-03    13  7  9  7
 -1.538086192673e-02    13  7  10  5
 -4.614412235275e-03    13  7  10  8
  1.394176383472e-02    13  7  11  6
 -2.739227196319e-03    13  7  11  10
 -1.546823182805e-02    13  7  12  4
 -4.124892103031e-03    13  7  12  9
  8.133638142455e-04    13  7  13  1
  4.540619814460e-03    13  7  13  3
  1.803188346493e-02    13  7  13  7
  5.667517447197e-03    13  8  5  4
  7.511190612372e-03    13  8  6  1
  1.234911618158e-02    13  8  6  3
 -7.183051965841e-04    13  8  7  6
  8.632241080980e-03    13  8  8  4
 -3.719026324944e-03    13  8  9  5
  7.609038617821e-04    13  8  9  8
  6.605198574266e-03    13  8  10  1
  9.151168765101e-03    13  8  10  3
  4.662892880603e-03    13  8  10  7
 -6.316930198398e-03    13  8  11  4
 -1.306039059077e-03    13  8  11  9
 -7.516112465255e-03    13  8  12  6
 -8.272320562557e-03    13  8  12  10
  4.518602982010e-03    13  8  13  5
  1.565008079948e-02    13  8  13  8
  2.706778871527e-02    13  9  1  1
  1.871009712661e-02    13  9  2  2
 -2.562873506315e-02    13  9  3  1
  5.968577850667e-03    13  9  3  3
  2.200507266289e-03    13  9  4  4
  2.665226965663e-02    13  9  5  5
  5.735730938470e-03    13  9  6  6
  2.636786805261e-03    13  9  7  1
 -2.394863230571e-02    13  9  7  3
 -4.225964236311e-03    13  9  7  7
 -2.034305919919e-02    13  9  8  5
  4.722348390686e-03    13  9  8  8
 -3.178877510739e-02    13  9  9  4
  1.533765302994e-02    13  9  9  9
 -1.889490893329e-02    13  9  10  6
  5.106644215814e-03    13  9  10  10
 -3.073625154661e-03    13  9  11  5
  1.852564589918e-02    13  9  11  8
  1.673903117259e-02    13  9  11  11
 -6.891802590761e-04    13  9  12  1
 -3.538426195139e-04    13  9  12  3
 -1.670205670584e-02    13  9  12  7
  1.485033312986e-02    13  9  12  12
  8.644740302265e-04    13  9  13  4
  2.285241968390e-02    13  9  13  9
  1.580636370929e-02    13  10  5  1
  5.628321725658e-03    13  10  5  3
 -1.931274890598e-04    13  10  6  4
 -7.340928419325e-03    13  10  7  5
  8.035980740391e-03    13  10  8  1
  1.452449221416e-02    13  10  8  3
 -1.425215667800e-04    13  10  8  7
 -2.488004959331e-03    13  10  9  6
  1.654683006114e-02    13  10  10  4
 -7.462772689698e-04    13  10  10  9
  8.177743880192e-03    13  10  11  1
 -4.053226091132e-03    13  10  11  3
 -1.226151930850e-02    13  10  11  7
  5.787411557372e-03    13  10  12  5
 -9.549711294379e-03    13  10  12  8
  1.731002829028e-02    13  10  12  11
  5.538340511274e-04    13  10  13  6
  2.415544208145e-02    13  10  13  10
  9.282960129367e-03    13  11  5  4
 -1.810418678424e-02    13  11  6  1
 -5.339970634498e-03    13  11  6  3
  8.644104524283e-03    13  11  7  6
 -7.662130539645e-03    13  11  8  4
 -2.872464954237e-03    13  11  9  5
  5.378082007817e-03    13  11  9  8
  9.642664138772e-03    13  11  10  1
 -8.878723591777e-03    13  11  10  3
 -7.305754560243e-03    13  11  10  7
  1.083560628992e-02    13  11  11  4
  2.193625633117e-03    13  11  11  9
 -7.485429885662e-03    13  11  12  6
  1.844253294947e-02    13  11  12  10
  6.132582443610e-03    13  11  13  5