 &FCI NORB=22 ,NELEC=22 ,MS2=0,
  ORBSYM=5,6,5,6,7,8,5,7,6,8,7,5,6,8,5,7,6,5,8,7,8,7,
  ISYM=1,
 &END
  1.978898284345e-01    1  1  1  1
  6.181118718003e-02    2  1  2  1
  1.623823401403e-01    2  2  1  1
  1.713713616906e-01    2  2  2  2
 -3.437859764931e-02    3  1  1  1
  8.477387581385e-03    3  1  2  2
  4.128422903659e-02    3  1  3  1
  4.153114989007e-02    3  2  2  1
  5.200132009039e-02    3  2  3  2
  1.596129298285e-01    3  3  1  1
  1.552267487433e-01    3  3  2  2
 -4.398038190622e-03    3  3  3  1
  1.603254536341e-01    3  3  3  3
 -2.188441715266e-02    4  1  2  1
  8.196759849946e-03    4  1  3  2
  2.953866627296e-02    4  1  4  1
 -3.588862325780e-02    4  2  1  1
 -8.384839274076e-03    4  2  2  2
  2.651751672957e-02    4  2  3  1
  4.813593685909e-04    4  2  3  3
  3.410800347823e-02    4  2  4  2
  3.997415935350e-02    4  3  2  1
  3.861468943398e-02    4  3  3  2
 -2.942437014526e-03    4  3  4  1
  5.084956121440e-02    4  3  4  3
  1.580089595855e-01    4  4  1  1
  1.517500170329e-01    4  4  2  2
 -6.209742550400e-03    4  4  3  1
  1.560542461345e-01    4  4  3  3
 -1.828401004425e-03    4  4  4  2
  1.609605655445e-01    4  4  4  4
  4.023919820447e-02    5  1  5  1
  2.082571597555e-02    5  2  5  2
 -1.280865484649e-02    5  3  5  1
  1.791426429001e-02    5  3  5  3
 -9.997235082061e-03    5  4  5  2
  1.472193506316e-02    5  4  5  4
  1.932284455241e-01    5  5  1  1
  1.573547316783e-01    5  5  2  2
 -3.456621474993e-02    5  5  3  1
  1.551510545926e-01    5  5  3  3
 -3.521549616496e-02    5  5  4  2
  1.534230321820e-01    5  5  4  4
  1.937874318641e-01    5  5  5  5
  2.140834615442e-02    6  1  5  2
 -1.021653401922e-02    6  1  5  4
  2.201558663937e-02    6  1  6  1
  2.738136731332e-02    6  2  5  1
  6.157721851061e-03    6  2  5  3
  3.462851138043e-02    6  2  6  2
  1.123371988344e-02    6  3  5  2
  5.457111205599e-03    6  3  5  4
  1.160382461419e-02    6  3  6  1
  1.794942761021e-02    6  3  6  3
 -1.233987094013e-02    6  4  5  1
  9.811294259909e-03    6  4  5  3
 -1.997646215752e-03    6  4  6  2
  1.628545227964e-02    6  4  6  4
  5.778409134579e-02    6  5  2  1
  3.792425763395e-02    6  5  3  2
 -2.110116052157e-02    6  5  4  1
  3.696014435326e-02    6  5  4  3
  5.723226802839e-02    6  5  6  5
  1.597367474877e-01    6  6  1  1
  1.659948417735e-01    6  6  2  2
  5.946713275650e-03    6  6  3  1
  1.506188072628e-01    6  6  3  3
 -9.742018108675e-03    6  6  4  2
  1.489131996925e-01    6  6  4  4
  1.583240705750e-01    6  6  5  5
  1.661850911568e-01    6  6  6  6
  3.422669311072e-04    7  1  1  1
 -1.622655893618e-02    7  1  2  2
 -1.595224734639e-02    7  1  3  1
  4.564890267922e-03    7  1  3  3
  5.525227271199e-03    7  1  4  2
  4.963583730611e-03    7  1  4  4
  9.754851994495e-04    7  1  5  5
 -1.470949080193e-02    7  1  6  6
  2.085360413797e-02    7  1  7  1
 -2.253204080020e-02    7  2  2  1
 -6.406515597102e-03    7  2  3  2
  1.636887436445e-02    7  2  4  1
  9.068798120276e-03    7  2  4  3
 -2.085286205146e-02    7  2  6  5
  3.100711319727e-02    7  2  7  2
 -3.685910094149e-02    7  3  1  1
 -1.243244904133e-02    7  3  2  2
  2.357091145236e-02    7  3  3  1
 -4.039000357245e-03    7  3  3  3
  3.107431952140e-02    7  3  4  2
  2.489045950275e-03    7  3  4  4
 -3.575008769615e-02    7  3  5  5
 -1.156606611848e-02    7  3  6  6
  6.317787413358e-03    7  3  7  1
  3.667216682701e-02    7  3  7  3
  3.695669194189e-02    7  4  2  1
  4.527595569189e-02    7  4  3  2
  6.590920644918e-03    7  4  4  1
  4.281589058117e-02    7  4  4  3
  3.498886739530e-02    7  4  6  5
  3.185465352137e-03    7  4  7  2
  4.977270391668e-02    7  4  7  4
  9.213567409696e-04    7  5  5  1
 -8.122474706486e-03    7  5  5  3
 -7.701888716225e-03    7  5  6  2
  5.000316981204e-03    7  5  6  4
  1.195136538146e-02    7  5  7  5
 -9.316974189777e-03    7  6  5  2
  8.389209903519e-03    7  6  5  4
 -9.530257137364e-03    7  6  6  1
 -6.186137234523e-04    7  6  6  3
  1.372104783629e-02    7  6  7  6
  1.533579603196e-01    7  7  1  1
  1.609347623858e-01    7  7  2  2
  7.167913168972e-03    7  7  3  1
  1.557719391904e-01    7  7  3  3
  1.313255211880e-03    7  7  4  2
  1.544312679710e-01    7  7  4  4
  1.489661963506e-01    7  7  5  5
  1.536929789005e-01    7  7  6  6
 -6.258141377353e-03    7  7  7  1
 -7.419341551025e-04    7  7  7  3
  1.631605468396e-01    7  7  7  7
 -1.118968924076e-02    8  1  5  1
  1.785323499272e-02    8  1  5  3
  7.766717108905e-03    8  1  6  2
  9.621706637690e-03    8  1  6  4
 -8.191180544370e-03    8  1  7  5
  1.791769484013e-02    8  1  8  1
  1.228183911022e-02    8  2  5  2
  5.070340980352e-03    8  2  5  4
  1.269315549539e-02    8  2  6  1
  1.864177513379e-02    8  2  6  3
 -7.863650920802e-04    8  2  7  6
  1.942127181953e-02    8  2  8  2
  2.642982070939e-02    8  3  5  1
 -5.406976478724e-04    8  3  5  3
  2.653136824169e-02    8  3  6  2
  5.729712299954e-03    8  3  6  4
  5.177615225536e-03    8  3  7  5
  9.098206016355e-04    8  3  8  1
  3.286126974516e-02    8  3  8  3
  1.064255008361e-02    8  4  5  2
  9.148372595857e-04    8  4  5  4
  1.097818131432e-02    8  4  6  1
  1.248908949740e-02    8  4  6  3
  5.466735334349e-03    8  4  7  6
  1.332511121965e-02    8  4  8  2
  1.686729595140e-02    8  4  8  4
 -3.109941929180e-02    8  5  1  1
  8.088347311287e-03    8  5  2  2
  3.767640169043e-02    8  5  3  1
 -4.191011574859e-03    8  5  3  3
  2.365513293129e-02    8  5  4  2
 -4.072098849173e-03    8  5  4  4
 -3.306815769324e-02    8  5  5  5
  7.338165571821e-03    8  5  6  6
 -1.459586094999e-02    8  5  7  1
  2.253287085350e-02    8  5  7  3
  4.334616228307e-03    8  5  7  7
  3.769680515823e-02    8  5  8  5
  4.073680259369e-02    8  6  2  1
  4.900027911113e-02    8  6  3  2
  6.199835446679e-03    8  6  4  1
  3.863145854316e-02    8  6  4  3
  3.900329614075e-02    8  6  6  5
 -4.946706576681e-03    8  6  7  2
  4.134607220604e-02    8  6  7  4
  4.983918594095e-02    8  6  8  6
 -1.158166214672e-02    8  7  5  1
  9.936802268015e-03    8  7  5  3
 -1.048087602376e-03    8  7  6  2
  1.092431600011e-02    8  7  6  4
  7.784731018896e-04    8  7  7  5
  9.943250805249e-03    8  7  8  1
  6.672353569963e-04    8  7  8  3
  1.357788959678e-02    8  7  8  7
  1.553041985209e-01    8  8  1  1
  1.520363320073e-01    8  8  2  2
 -3.213664963881e-03    8  8  3  1
  1.577502332803e-01    8  8  3  3
  2.399651324567e-03    8  8  4  2
  1.498723997934e-01    8  8  4  4
  1.545590073070e-01    8  8  5  5
  1.513047127224e-01    8  8  6  6
  5.033800457235e-03    8  8  7  1
 -5.160470346812e-03    8  8  7  3
  1.495152010900e-01    8  8  7  7
 -3.091678848621e-03    8  8  8  5
  1.620598880724e-01    8  8  8  8
  9.472197840174e-04    9  1  2  1
 -1.365224494544e-02    9  1  3  2
 -1.391763635582e-02    9  1  4  1
  1.199628578395e-02    9  1  4  3
  1.302346407072e-03    9  1  6  5
  1.291985863432e-02    9  1  7  2
 -4.273674691399e-03    9  1  7  4
 -9.986269045532e-03    9  1  8  6
  2.624593970770e-02    9  1  9  1
  6.003937228086e-04    9  2  1  1
 -1.789638610892e-02    9  2  2  2
 -1.781801254448e-02    9  2  3  1
  9.079445530139e-04    9  2  3  3
  1.950497154445e-03    9  2  4  2
  8.573795198041e-03    9  2  4  4
  1.174137495897e-03    9  2  5  5
 -1.443819113614e-02    9  2  6  6
  2.004915246758e-02    9  2  7  1
  9.789051567254e-03    9  2  7  3
 -8.025720592046e-03    9  2  7  7
 -1.443418271375e-02    9  2  8  5
 -1.032705502814e-03    9  2  8  8
  2.528082724655e-02    9  2  9  2
 -2.489593526866e-02    9  3  2  1
  2.991046682972e-04    9  3  3  2
  2.530938712207e-02    9  3  4  1
 -8.949227894423e-04    9  3  4  3
 -2.183420502975e-02    9  3  6  5
  2.266566905369e-02    9  3  7  2
  8.338730965456e-03    9  3  7  4
 -1.613737643593e-03    9  3  8  6
 -4.969855253183e-03    9  3  9  1
  3.009354319559e-02    9  3  9  3
 -3.944325789829e-02    9  4  1  1
 -2.749051727197e-03    9  4  2  2
  3.547560953581e-02    9  4  3  1
 -5.158404152262e-03    9  4  3  3
  3.155771944438e-02    9  4  4  2
 -5.196852598652e-03    9  4  4  4
 -3.722093996129e-02    9  4  5  5
 -5.205420626494e-03    9  4  6  6
 -5.931443574669e-03    9  4  7  1
  3.068342195593e-02    9  4  7  3
  6.609672731348e-03    9  4  7  7
  2.961235255539e-02    9  4  8  5
 -5.171049615345e-03    9  4  8  8
 -7.770464261032e-03    9  4  9  2
  4.013018164420e-02    9  4  9  4
  8.008401916112e-04    9  5  5  2
 -6.044391905275e-03    9  5  5  4
  7.938643941666e-04    9  5  6  1
 -5.578920010229e-03    9  5  6  3
  5.059922747947e-03    9  5  7  6
 -5.346528246505e-03    9  5  8  2
  4.553716891490e-03    9  5  8  4
  1.074727506454e-02    9  5  9  5
  8.870646417101e-04    9  6  5  1
 -6.722236773739e-03    9  6  5  3
 -6.180197432635e-03    9  6  6  2
  7.499476854445e-04    9  6  6  4
  7.465773718332e-03    9  6  7  5
 -6.572364013717e-03    9  6  8  1
  6.988724509948e-04    9  6  8  3
  3.418340052333e-03    9  6  8  7
  9.098847420647e-03    9  6  9  6
  5.486380689228e-02    9  7  2  1
  4.776163572252e-02    9  7  3  2
 -9.266106478911e-03    9  7  4  1
  4.590181361343e-02    9  7  4  3
  4.835680651729e-02    9  7  6  5
 -1.156145216179e-02    9  7  7  2
  4.574618357498e-02    9  7  7  4
  4.343947451110e-02    9  7  8  6
 -1.172617070221e-03    9  7  9  1
 -1.287388328936e-02    9  7  9  3
  5.959313446863e-02    9  7  9  7
 -7.489715587957e-03    9  8  5  2
  8.065934691872e-03    9  8  5  4
 -7.588440695804e-03    9  8  6  1
  6.243559850844e-04    9  8  6  3
  7.103925395476e-03    9  8  7  6
  2.978957787435e-04    9  8  8  2
  4.850777940134e-04    9  8  8  4
 -1.690849980644e-03    9  8  9  5
  8.587535549106e-03    9  8  9  8
  1.843764901571e-01    9  9  1  1
  1.658615490417e-01    9  9  2  2
 -1.820435662043e-02    9  9  3  1
  1.623960796410e-01    9  9  3  3
 -2.153522988891e-02    9  9  4  2
  1.612346324670e-01    9  9  4  4
  1.750491054743e-01    9  9  5  5
  1.579398702112e-01    9  9  6  6
 -2.102988800015e-03    9  9  7  1
 -2.330581645017e-02    9  9  7  3
  1.609662183887e-01    9  9  7  7
 -1.572312252074e-02    9  9  8  5
  1.535553413888e-01    9  9  8  8
 -2.483651104267e-03    9  9  9  2
 -2.409177129363e-02    9  9  9  4
  1.851390920752e-01    9  9  9  9
 -9.327918843898e-03    10  1  5  2
  1.474347548549e-02    10  1  5  4
 -9.542461860433e-03    10  1  6  1
  6.263773520203e-03    10  1  6  3
  8.949994695548e-03    10  1  7  6
  5.953110560096e-03    10  1  8  2
  2.257293219049e-03    10  1  8  4
 -5.346225200389e-03    10  1  9  5
  7.375637668206e-03    10  1  9  8
  1.504692199584e-02    10  1  10  1
 -1.125708456505e-02    10  2  5  1
  1.020503566089e-02    10  2  5  3
 -4.407393175747e-04    10  2  6  2
  1.708683396598e-02    10  2  6  4
  5.330187582434e-03    10  2  7  5
  1.013907410197e-02    10  2  8  1
  7.770485352340e-03    10  2  8  3
  1.094289358997e-02    10  2  8  7
  5.281840588907e-04    10  2  9  6
  1.816415788736e-02    10  2  10  2
  1.159050297715e-02    10  3  5  2
  1.032883038412e-03    10  3  5  4
  1.197587398653e-02    10  3  6  1
  1.361186130499e-02    10  3  6  3
  5.004443926477e-03    10  3  7  6
  1.454033657339e-02    10  3  8  2
  1.739773963443e-02    10  3  8  4
  4.028909048870e-03    10  3  9  5
  2.484699510183e-04    10  3  9  8
  2.422267059040e-03    10  3  10  1
  1.810086380756e-02    10  3  10  3
  2.551871089418e-02    10  4  5  1
  1.023770784132e-03    10  4  5  3
  2.732176970677e-02    10  4  6  2
  4.813296406810e-04    10  4  6  4
 -2.499584833299e-04    10  4  7  5
  2.638969003176e-03    10  4  8  1
  2.639698720493e-02    10  4  8  3
  3.982085828945e-03    10  4  8  7
  2.764892520860e-03    10  4  9  6
  1.684139226659e-03    10  4  10  2
  2.924406577950e-02    10  4  10  4
 -1.937352898138e-02    10  5  2  1
  7.557579978585e-03    10  5  3  2
  2.624193217516e-02    10  5  4  1
 -5.464339821840e-04    10  5  4  3
 -2.061854818824e-02    10  5  6  5
  1.622833318523e-02    10  5  7  2
  3.163007361466e-03    10  5  7  4
  7.363181399926e-03    10  5  8  6
 -9.905549528729e-03    10  5  9  1
  1.952718844924e-02    10  5  9  3
 -7.528353537835e-03    10  5  9  7
  2.720433482152e-02    10  5  10  5
 -3.282310197308e-02    10  6  1  1
 -6.233730490654e-03    10  6  2  2
  2.555011387462e-02    10  6  3  1
  3.516807495886e-03    10  6  3  3
  3.388685292155e-02    10  6  4  2
 -2.702056940889e-03    10  6  4  4
 -3.425153019701e-02    10  6  5  5
 -8.003091847015e-03    10  6  6  6
  6.268196157961e-03    10  6  7  1
  2.692978370829e-02    10  6  7  3
 -1.871767463456e-04    10  6  7  7
  2.444700079091e-02    10  6  8  5
  8.086722324446e-03    10  6  8  8
 -1.617968303282e-05    10  6  9  2
  2.695093541674e-02    10  6  9  4
 -1.833393847351e-02    10  6  9  9
  3.885557323917e-02    10  6  10  6
  1.175762842585e-02    10  7  5  2
 -3.369742852899e-04    10  7  5  4
  1.216879905184e-02    10  7  6  1
  1.195662552311e-02    10  7  6  3
 -8.885460063197e-04    10  7  7  6
  1.254689848830e-02    10  7  8  2
  1.120169417161e-02    10  7  8  4
 -1.155844811695e-03    10  7  9  5
  2.145585212510e-03    10  7  9  8
 -3.611304971960e-04    10  7  10  1
  1.174363077148e-02    10  7  10  3
  1.381152494841e-02    10  7  10  7
  3.880090363164e-02    10  8  2  1
  4.204069607650e-02    10  8  3  2
  1.532317027757e-03    10  8  4  1
  4.568870385001e-02    10  8  4  3
  3.745737492157e-02    10  8  6  5
  4.840123799644e-03    10  8  7  2
  3.991680192417e-02    10  8  7  4
  4.448105616020e-02    10  8  8  6
  3.909698275801e-03    10  8  9  1
 -1.315721945418e-03    10  8  9  3
  4.166389997191e-02    10  8  9  7
  4.292077308725e-03    10  8  10  5
  4.786939816795e-02    10  8  10  8
 -8.270815426541e-03    10  9  5  1
  8.642028654027e-03    10  9  5  3
  7.329686586194e-04    10  9  6  2
  7.522607148193e-03    10  9  6  4
 -1.696523573991e-03    10  9  7  5
  8.260241913361e-03    10  9  8  1
  3.367270515847e-04    10  9  8  3
  7.074626791532e-03    10  9  8  7
 -2.056817784769e-03    10  9  9  6
  7.208680707297e-03    10  9  10  2
  3.750961712131e-04    10  9  10  4
  7.827718092316e-03    10  9  10  9
  1.547584077665e-01    10  10  1  1
  1.550989432493e-01    10  10  2  2
  2.713205289324e-04    10  10  3  1
  1.505509313282e-01    10  10  3  3
 -4.217908826571e-03    10  10  4  2
  1.531162990971e-01    10  10  4  4
  1.541609847043e-01    10  10  5  5
  1.570458356210e-01    10  10  6  6
 -3.636991993349e-03    10  10  7  1
 -1.744690807781e-03    10  10  7  3
  1.492239926896e-01    10  10  7  7
  2.743100508810e-03    10  10  8  5
  1.509544479426e-01    10  10  8  8
 -6.663911601767e-04    10  10  9  2
 -4.758727756895e-03    10  10  9  4
  1.526378164106e-01    10  10  9  9
 -3.595037631784e-03    10  10  10  6
  1.571789102780e-01    10  10  10  10
 -5.140971894398e-04    11  1  5  1
  7.783775598175e-03    11  1  5  3
  7.785111326693e-03    11  1  6  2
 -7.397820736435e-03    11  1  6  4
 -1.344870116328e-02    11  1  7  5
  7.960129839916e-03    11  1  8  1
 -7.403244878729e-03    11  1  8  3
  2.620706360890e-04    11  1  8  7
 -5.996232496562e-03    11  1  9  6
 -8.026719757802e-03    11  1  10  2
  1.672860423714e-03    11  1  10  4
  1.096430235226e-03    11  1  10  9
  1.645753436206e-02    11  1  11  1
  9.097956461607e-03    11  2  5  2
 -1.060107679283e-02    11  2  5  4
  9.329630317145e-03    11  2  6  1
 -2.125137526549e-03    11  2  6  3
 -1.323886242110e-02    11  2  7  6
 -1.983089368577e-03    11  2  8  2
 -5.868330847707e-03    11  2  8  4
 -2.836111974630e-03    11  2  9  5
 -6.245004983389e-03    11  2  9  8
 -1.148054630558e-02    11  2  10  1
 -5.632358935749e-03    11  2  10  3
  1.412321317798e-03    11  2  10  7
  1.418096313017e-02    11  2  11  2
  1.111223345623e-02    11  3  5  1
 -1.248071867498e-02    11  3  5  3
 -2.200486501490e-03    11  3  6  2
 -1.064179855924e-02    11  3  6  4
  1.788280916373e-03    11  3  7  5
 -1.268260927733e-02    11  3  8  1
 -1.255868635849e-03    11  3  8  3
 -1.343112507444e-02    11  3  8  7
 -1.424429957794e-03    11  3  9  6
 -1.098666823159e-02    11  3  10  2
 -4.981734548899e-03    11  3  10  4
 -6.595173406169e-03    11  3  10  9
 -2.905784612070e-03    11  3  11  1
  1.452709019886e-02    11  3  11  3
 -1.417348346608e-02    11  4  5  2
  2.508804050930e-03    11  4  5  4
 -1.469007556736e-02    11  4  6  1
 -1.211540333239e-02    11  4  6  3
  2.764551290747e-03    11  4  7  6
 -1.289687037373e-02    11  4  8  2
 -1.133163251997e-02    11  4  8  4
  8.499032180644e-04    11  4  9  5
 -6.589559326381e-04    11  4  9  8
  2.511520546431e-03    11  4  10  1
 -1.211788183225e-02    11  4  10  3
 -1.417220501197e-02    11  4  10  7
 -3.408254983525e-03    11  4  11  2
  1.531401129888e-02    11  4  11  4
 -6.339002785416e-04    11  5  1  1
  1.335524320201e-02    11  5  2  2
  1.345765043617e-02    11  5  3  1
 -8.159058948670e-03    11  5  3  3
 -8.424797675122e-03    11  5  4  2
 -5.999066067977e-04    11  5  4  4
 -1.351738135402e-03    11  5  5  5
  1.470963010329e-02    11  5  6  6
 -2.034027809717e-02    11  5  7  1
 -1.479018451361e-03    11  5  7  3
  3.971237693917e-03    11  5  7  7
  1.505573511034e-02    11  5  8  5
 -1.188656187832e-02    11  5  8  8
 -1.296361715429e-02    11  5  9  2
  4.079454424504e-03    11  5  9  4
  1.209635166619e-03    11  5  9  9
 -1.281681569036e-02    11  5  10  6
  6.956306901807e-03    11  5  10  10
  2.849348346893e-02    11  5  11  5
  1.948227884317e-02    11  6  2  1
 -1.234546304043e-03    11  6  3  2
 -2.032520233383e-02    11  6  4  1
 -5.675971893147e-03    11  6  4  3
  2.072195497179e-02    11  6  6  5
 -2.332951355934e-02    11  6  7  2
 -9.529808672778e-04    11  6  7  4
 -2.531946527797e-03    11  6  8  6
 -2.834282838799e-03    11  6  9  1
 -1.743217015605e-02    11  6  9  3
  8.171507447624e-03    11  6  9  7
 -2.323716981771e-02    11  6  10  5
 -7.214717242212e-03    11  6  10  8
  2.638342222173e-02    11  6  11  6
 -2.675291959580e-02    11  7  5  1
  2.442046333916e-03    11  7  5  3
 -2.464167117034e-02    11  7  6  2
  3.230008749727e-03    11  7  6  4
  9.552547989872e-04    11  7  7  5
  1.406587967408e-03    11  7  8  1
 -2.334917373049e-02    11  7  8  3
  2.978373574153e-03    11  7  8  7
  1.294681765569e-03    11  7  9  6
  2.593159495408e-03    11  7  10  2
 -2.265143916313e-02    11  7  10  4
 -6.000879001265e-04    11  7  10  9
 -7.307733172473e-04    11  7  11  1
 -3.016394496274e-03    11  7  11  3
  2.388863704475e-02    11  7  11  7
  3.219520193273e-02    11  8  1  1
  1.426016950817e-03    11  8  2  2
 -2.955726960723e-02    11  8  3  1
  3.425371110267e-03    11  8  3  3
 -2.624133141228e-02    11  8  4  2
 -6.379300452873e-04    11  8  4  4
  3.414024810266e-02    11  8  5  5
  8.024628386157e-04    11  8  6  6
  3.814040257997e-03    11  8  7  1
 -2.907218215690e-02    11  8  7  3
  1.448199084971e-04    11  8  7  7
 -3.121079881759e-02    11  8  8  5
  3.053402111668e-03    11  8  8  8
  1.012908248593e-03    11  8  9  2
 -2.635682166928e-02    11  8  9  4
  1.757688253340e-02    11  8  9  9
 -2.663176863301e-02    11  8  10  6
 -3.040429321478e-03    11  8  10  10
 -7.475988743251e-03    11  8  11  5
  3.295185805602e-02    11  8  11  8
 -8.060974843879e-03    11  9  5  2
  1.745790349013e-03    11  9  5  4
 -8.188455725286e-03    11  9  6  1
 -6.789624410568e-03    11  9  6  3
  2.048328134698e-03    11  9  7  6
 -7.032219039935e-03    11  9  8  2
 -6.406254536329e-03    11  9  8  4
  1.554435369464e-04    11  9  9  5
  2.013370017381e-03    11  9  9  8
  1.290525703954e-03    11  9  10  1
 -6.459757580070e-03    11  9  10  3
 -6.340185523628e-03    11  9  10  7
 -1.472301065955e-03    11  9  11  2
  6.127758007501e-03    11  9  11  4
  5.876130708295e-03    11  9  11  9
 -4.752919930139e-02    11  10  2  1
 -4.015820372531e-02    11  10  3  2
  8.621081422838e-03    11  10  4  1
 -3.867691769019e-02    11  10  4  3
 -4.846928896934e-02    11  10  6  5
  9.573950596048e-03    11  10  7  2
 -4.136964781811e-02    11  10  7  4
 -4.083600707316e-02    11  10  8  6
  1.078621792352e-03    11  10  9  1
  6.751647329647e-03    11  10  9  3
 -4.353669402913e-02    11  10  9  7
  1.066099604690e-02    11  10  10  5
 -3.955764872678e-02    11  10  10  8
 -1.194165893667e-02    11  10  11  6
  4.849322742640e-02    11  10  11  10
  1.751885687222e-01    11  11  1  1
  1.552211926865e-01    11  11  2  2
 -1.914472693381e-02    11  11  3  1
  1.518263041610e-01    11  11  3  3
 -2.154284804350e-02    11  11  4  2
  1.501907181759e-01    11  11  4  4
  1.777870887191e-01    11  11  5  5
  1.566192211233e-01    11  11  6  6
 -1.653604940140e-03    11  11  7  1
 -2.215516369176e-02    11  11  7  3
  1.507243324038e-01    11  11  7  7
 -1.994601997277e-02    11  11  8  5
  1.527192517833e-01    11  11  8  8
 -2.076372620212e-03    11  11  9  2
 -1.924949716092e-02    11  11  9  4
  1.616354581914e-01    11  11  9  9
 -2.266856105653e-02    11  11  10  6
  1.530862620277e-01    11  11  10  10
  7.706176964864e-04    11  11  11  5
  2.267176491065e-02    11  11  11  8
  1.716525908790e-01    11  11  11  11
 -2.589269248614e-06    12  1  1  1
  8.448241580288e-06    12  1  2  2
 -7.180476763353e-08    12  1  3  1
 -6.240486886735e-03    12  1  3  3
 -5.950714224123e-03    12  1  4  2
  4.804031589970e-03    12  1  4  4
 -1.692147770317e-04    12  1  5  5
  2.871613519606e-03    12  1  6  6
 -4.518686852178e-03    12  1  7  1
  4.691441671329e-03    12  1  7  3
 -1.437114155862e-03    12  1  7  7
  2.972970323677e-03    12  1  8  5
 -1.046144547503e-02    12  1  8  8
  4.805838033746e-03    12  1  9  2
 -1.332618113610e-03    12  1  9  4
 -4.024288351521e-04    12  1  9  9
 -1.075653487868e-02    12  1  10  6
  5.211203005396e-03    12  1  10  10
  1.512515276856e-02    12  1  11  5
 -5.213051478424e-03    12  1  11  8
 -4.433703358590e-04    12  1  11  11
  1.530402240994e-02    12  1  12  1
  2.839189496629e-04    12  2  2  1
 -9.329381809469e-03    12  2  3  2
 -8.812631327666e-03    12  2  4  1
  2.343501649274e-03    12  2  4  3
  3.000104615116e-03    12  2  6  5
  3.785783326957e-03    12  2  7  2
  2.079551334691e-03    12  2  7  4
 -9.564721889423e-03    12  2  8  6
  1.084885465633e-02    12  2  9  1
  2.212536877648e-03    12  2  9  3
 -2.086739880580e-03    12  2  9  7
 -1.211473726354e-02    12  2  10  5
 -4.242260830802e-03    12  2  10  8
  7.873219149774e-03    12  2  11  6
 -4.373824841693e-03    12  2  11  10
  1.445592780884e-02    12  2  12  2
  3.957337495774e-04    12  3  1  1
 -1.262134710412e-02    12  3  2  2
 -1.240517418295e-02    12  3  3  1
  3.075866265216e-04    12  3  3  3
  1.200898508754e-03    12  3  4  2
  2.020128896249e-03    12  3  4  4
  3.170238195672e-03    12  3  5  5
 -1.266510390442e-02    12  3  6  6
  1.284849001927e-02    12  3  7  1
  3.417631900980e-03    12  3  7  3
 -7.432846865966e-04    12  3  7  7
 -1.493287168091e-02    12  3  8  5
 -1.412158071243e-03    12  3  8  8
  1.274731010549e-02    12  3  9  2
 -1.057601429261e-04    12  3  9  4
 -2.846214301114e-03    12  3  9  9
 -2.916704662341e-03    12  3  10  6
 -5.960886048300e-03    12  3  10  10
 -1.236420851148e-02    12  3  11  5
  9.222330850824e-03    12  3  11  8
  3.694205358984e-03    12  3  11  11
 -2.064795714990e-03    12  3  12  1
  1.568898440473e-02    12  3  12  3
 -1.684798257246e-02    12  4  2  1
  5.999835571702e-04    12  4  3  2
  1.708773613845e-02    12  4  4  1
  3.579008212986e-04    12  4  4  3
 -1.919580081621e-02    12  4  6  5
  1.525017134564e-02    12  4  7  2
  3.871960318722e-03    12  4  7  4
 -3.381555069231e-03    12  4  8  6
 -2.573934459004e-03    12  4  9  1
  1.673118448541e-02    12  4  9  3
 -3.054921930216e-03    12  4  9  7
  1.591901777839e-02    12  4  10  5
 -3.006026510106e-03    12  4  10  8
 -1.536915430838e-02    12  4  11  6
  1.217933135781e-02    12  4  11  10
 -2.884241357339e-03    12  4  12  2
  1.794142619973e-02    12  4  12  4
 -2.798914139155e-04    12  5  5  1
  3.906762482937e-03    12  5  5  3
  3.967749939450e-03    12  5  6  2
 -8.025976463214e-03    12  5  6  4
 -9.831004301494e-03    12  5  7  5
  4.247335000925e-03    12  5  8  1
 -8.475426956467e-03    12  5  8  3
  3.884612482856e-03    12  5  8  7
  8.920264927040e-04    12  5  9  6
 -9.012809689897e-03    12  5  10  2
  4.655672674859e-03    12  5  10  4
 -1.670599651507e-04    12  5  10  9
  1.488037287795e-02    12  5  11  1
 -5.313030941768e-03    12  5  11  3
  3.189533091827e-04    12  5  11  7
  1.950337137896e-02    12  5  12  5
  4.870730010143e-03    12  6  5  2
 -1.068638610050e-02    12  6  5  4
  5.061149723702e-03    12  6  6  1
 -6.834422252115e-03    12  6  6  3
 -4.805218940448e-03    12  6  7  6
 -6.768458457669e-03    12  6  8  2
 -2.400647022845e-03    12  6  8  4
  4.547093146324e-03    12  6  9  5
 -5.472661654608e-04    12  6  9  8
 -1.185808944326e-02    12  6  10  1
 -2.832696956259e-03    12  6  10  3
  3.368687772192e-03    12  6  10  7
  8.941984502313e-03    12  6  11  2
 -4.614438813528e-03    12  6  11  4
  7.204267935123e-05    12  6  11  9
  1.530488376442e-02    12  6  12  6
 -2.070120185503e-02    12  7  1  1
  2.983834945145e-03    12  7  2  2
  2.264670211264e-02    12  7  3  1
  1.982545769832e-03    12  7  3  3
  2.024845865049e-02    12  7  4  2
  2.441995615357e-03    12  7  4  4
 -2.538645776986e-02    12  7  5  5
 -3.164713113593e-03    12  7  6  6
 -3.376553184934e-03    12  7  7  1
  1.929925963039e-02    12  7  7  3
  8.638894602458e-03    12  7  7  7
  2.082123859212e-02    12  7  8  5
 -3.019229953183e-03    12  7  8  8
 -4.307956746795e-03    12  7  9  2
  2.244445579155e-02    12  7  9  4
 -3.311602140189e-03    12  7  9  9
  1.962064250665e-02    12  7  10  6
 -3.426149816826e-03    12  7  10  10
  2.470016702029e-03    12  7  11  5
 -1.969959359364e-02    12  7  11  8
 -1.825773368232e-02    12  7  11  11
 -6.126972296282e-04    12  7  12  1
 -3.569220393544e-03    12  7  12  3
  2.229699421730e-02    12  7  12  7
  6.456644989739e-03    12  8  5  1
 -1.335223629501e-02    12  8  5  3
 -7.902928081291e-03    12  8  6  2
 -4.950973525696e-03    12  8  6  4
  7.760403121472e-03    12  8  7  5
 -1.385266155048e-02    12  8  8  1
 -4.860958008370e-04    12  8  8  3
 -5.959844623146e-03    12  8  8  7
  5.192821525181e-03    12  8  9  6
 -5.989692620078e-03    12  8  10  2
 -2.763129705110e-03    12  8  10  4
 -1.857146427419e-03    12  8  10  9
 -8.218962569298e-03    12  8  11  1
  9.923477259545e-03    12  8  11  3
 -3.653208204168e-03    12  8  11  7
 -5.626508772169e-03    12  8  12  5
  1.645496773269e-02    12  8  12  8
  3.090042249380e-02    12  9  2  1
  2.735266537671e-02    12  9  3  2
 -4.757762307338e-03    12  9  4  1
  2.636334757960e-02    12  9  4  3
  2.709379363425e-02    12  9  6  5
 -5.971970692355e-03    12  9  7  2
  2.632908607643e-02    12  9  7  4
  2.474055988384e-02    12  9  8  6
 -6.457784206046e-04    12  9  9  1
 -6.597874932608e-03    12  9  9  3
  3.324533855262e-02    12  9  9  7
 -3.855717051984e-03    12  9  10  5
  2.382318464136e-02    12  9  10  8
  4.201077775567e-03    12  9  11  6
 -2.477300146495e-02    12  9  11  10
 -1.051576176705e-03    12  9  12  2
 -2.034640239036e-03    12  9  12  4
  2.007182695214e-02    12  9  12  9
 -1.673238580227e-02    12  10  5  2
  1.001100458966e-02    12  10  5  4
 -1.733837045230e-02    12  10  6  1
 -6.677607292071e-03    12  10  6  3
  8.979642287769e-03    12  10  7  6
 -7.720411531113e-03    12  10  8  2
 -6.229953903432e-03    12  10  8  4
 -8.712273555877e-04    12  10  9  5
  6.063651834583e-03    12  10  9  8
  9.839399375322e-03    12  10  10  1
 -7.407145714262e-03    12  10  10  3
 -8.330445017446e-03    12  10  10  7
 -9.609707495062e-03    12  10  11  2
  1.169267848847e-02    12  10  11  4
  2.800380526303e-03    12  10  11  9
 -6.884471274704e-03    12  10  12  6
  1.947663359171e-02    12  10  12  10
  3.274187799931e-02    12  11  5  1
 -1.276557340859e-02    12  11  5  3
  1.970866258385e-02    12  11  6  2
 -1.209036839773e-02    12  11  6  4
  1.054476580591e-03    12  11  7  5
 -1.166177330125e-02    12  11  8  1
  1.902172627755e-02    12  11  8  3
 -1.105469379248e-02    12  11  8  7
  1.050125096182e-03    12  11  9  6
 -1.164159655191e-02    12  11  10  2
  1.860623586550e-02    12  11  10  4
 -6.867869254439e-03    12  11  10  9
 -5.858965292545e-04    12  11  11  1
  1.146616388759e-02    12  11  11  3
 -2.166786710247e-02    12  11  11  7
 -2.121394895941e-04    12  11  12  5
  8.644121420846e-03    12  11  12  8
  3.535359418328e-02    12  11  12  11
  1.756874392462e-01    12  12  1  1
  1.573751195729e-01    12  12  2  2
 -1.758455523730e-02    12  12  3  1
  1.539914272652e-01    12  12  3  3
 -2.009691516062e-02    12  12  4  2
  1.523494069723e-01    12  12  4  4
  1.776692969647e-01    12  12  5  5
  1.577483523604e-01    12  12  6  6
 -1.776604205548e-03    12  12  7  1
 -2.086838760329e-02    12  12  7  3
  1.526454297790e-01    12  12  7  7
 -1.875415542858e-02    12  12  8  5
  1.539610175146e-01    12  12  8  8
 -2.219944807169e-03    12  12  9  2
 -1.843906190393e-02    12  12  9  4
  1.637966690115e-01    12  12  9  9
 -2.138552484016e-02    12  12  10  6
  1.542397925618e-01    12  12  10  10
  7.991976904334e-04    12  12  11  5
  2.130311757620e-02    12  12  11  8
  1.710851555680e-01    12  12  11  11
 -4.778198020016e-04    12  12  12  1
  2.745602345182e-03    12  12  12  3
 -1.592926030685e-02    12  12  12  7
  1.729668439904e-01    12  12  12  12
  1.174081061969e-03    13  1  2  1
  1.169085327836e-04    13  1  3  2
 -1.377172214742e-03    13  1  4  1
  4.983751179731e-03    13  1  4  3
 -1.279444398260e-03    13  1  6  5
  3.438129001353e-03    13  1  7  2
 -4.992378977559e-03    13  1  7  4
  2.891431772587e-03    13  1  8  6
  6.177413446018e-03    13  1  9  1
 -6.244848575691e-03    13  1  9  3