 &FCI NORB=22 ,NELEC=22 ,MS2=0,
  ORBSYM=5,6,5,6,7,8,5,7,6,8,7,5,6,8,5,7,6,5,8,7,8,7,
  ISYM=1,
 &END
  2.056795980884e-01    1  1  1  1
  5.952836726344e-02    2  1  2  1
  1.644634211669e-01    2  2  1  1
  1.722595161796e-01    2  2  2  2
 -3.524297064899e-02    3  1  1  1
  7.997083090908e-03    3  1  2  2
  3.827887490615e-02    3  1  3  1
  4.134645031676e-02    3  2  2  1
  5.495583490148e-02    3  2  3  2
  1.589379012796e-01    3  3  1  1
  1.574029059843e-01    3  3  2  2
 -1.565761384914e-03    3  3  3  1
  1.603131738222e-01    3  3  3  3
 -2.453637918990e-02    4  1  2  1
  5.673110366117e-03    4  1  3  2
  2.986108891775e-02    4  1  4  1
 -3.905971623869e-02    4  2  1  1
 -8.912435248414e-03    4  2  2  2
  2.531161392689e-02    4  2  3  1
  9.644376180503e-04    4  2  3  3
  3.387023737017e-02    4  2  4  2
  3.791665203456e-02    4  3  2  1
  3.920595319125e-02    4  3  3  2
 -5.603873747841e-03    4  3  4  1
  4.962421590521e-02    4  3  4  3
  1.604977575277e-01    4  4  1  1
  1.518755421924e-01    4  4  2  2
 -8.127943110336e-03    4  4  3  1
  1.555922090083e-01    4  4  3  3
 -3.709195609037e-03    4  4  4  2
  1.618816000100e-01    4  4  4  4
  4.236810410597e-02    5  1  5  1
  2.055523023357e-02    5  2  5  2
 -1.291703366860e-02    5  3  5  1
  1.685344554284e-02    5  3  5  3
 -1.064064135390e-02    5  4  5  2
  1.468734165251e-02    5  4  5  4
  1.994627802717e-01    5  5  1  1
  1.591747941830e-01    5  5  2  2
 -3.432077573536e-02    5  5  3  1
  1.541767155651e-01    5  5  3  3
 -3.729004504885e-02    5  5  4  2
  1.553622758244e-01    5  5  4  4
  1.989772371736e-01    5  5  5  5
  2.095918435391e-02    6  1  5  2
 -1.083194194575e-02    6  1  5  4
  2.138249257530e-02    6  1  6  1
  2.744665317424e-02    6  2  5  1
  6.338962753770e-03    6  2  5  3
  3.458805557734e-02    6  2  6  2
  1.152934865827e-02    6  3  5  2
  4.662391309736e-03    6  3  5  4
  1.175804399824e-02    6  3  6  1
  1.883660256667e-02    6  3  6  3
 -1.305077745546e-02    6  4  5  1
  9.185101792101e-03    6  4  5  3
 -1.891217803707e-03    6  4  6  2
  1.606785783996e-02    6  4  6  4
  5.563926210350e-02    6  5  2  1
  3.848990751608e-02    6  5  3  2
 -2.288363745554e-02    6  5  4  1
  3.531566709623e-02    6  5  4  3
  5.528622466032e-02    6  5  6  5
  1.608647490696e-01    6  6  1  1
  1.666643296043e-01    6  6  2  2
  6.226249376086e-03    6  6  3  1
  1.522342200601e-01    6  6  3  3
 -9.707239159210e-03    6  6  4  2
  1.490018090401e-01    6  6  4  4
  1.592914199412e-01    6  6  5  5
  1.667347952155e-01    6  6  6  6
  3.206130888366e-03    7  1  1  1
 -1.513360086201e-02    7  1  2  2
 -1.738133114544e-02    7  1  3  1
  2.197884377709e-03    7  1  3  3
  2.265094381038e-03    7  1  4  2
  5.561037506816e-03    7  1  4  4
  3.504899007720e-03    7  1  5  5
 -1.372391886297e-02    7  1  6  6
  1.906400035263e-02    7  1  7  1
 -2.121027421157e-02    7  2  2  1
 -7.525175897689e-03    7  2  3  2
  1.390474544168e-02    7  2  4  1
  9.381006569117e-03    7  2  4  3
 -1.932227511495e-02    7  2  6  5
  2.926420092286e-02    7  2  7  2
 -3.964251569086e-02    7  3  1  1
 -1.528943846510e-02    7  3  2  2
  1.987521100529e-02    7  3  3  1
 -4.235062558597e-03    7  3  3  3
  3.067865656278e-02    7  3  4  2
  1.614919489802e-03    7  3  4  4
 -3.750927024266e-02    7  3  5  5
 -1.338010345027e-02    7  3  6  6
  5.662533193846e-03    7  3  7  1
  3.770706717332e-02    7  3  7  3
  3.168808214457e-02    7  4  2  1
  4.465375021605e-02    7  4  3  2
  6.057391648427e-03    7  4  4  1
  4.208242178169e-02    7  4  4  3
  3.109052294693e-02    7  4  6  5
  6.444914770068e-03    7  4  7  2
  4.911361133300e-02    7  4  7  4
  1.972390108737e-03    7  5  5  1
 -8.499617973106e-03    7  5  5  3
 -7.176928179004e-03    7  5  6  2
  4.026708957339e-03    7  5  6  4
  1.115565155187e-02    7  5  7  5
 -8.862091458512e-03    7  6  5  2
  7.545406770240e-03    7  6  5  4
 -9.138148828709e-03    7  6  6  1
 -1.063934119535e-03    7  6  6  3
  1.314717784379e-02    7  6  7  6
  1.494508397331e-01    7  7  1  1
  1.590339186856e-01    7  7  2  2
  8.488858718564e-03    7  7  3  1
  1.564935619090e-01    7  7  3  3
  4.775810016843e-03    7  7  4  2
  1.542768065219e-01    7  7  4  4
  1.454322761428e-01    7  7  5  5
  1.519529910905e-01    7  7  6  6
 -5.008707351280e-03    7  7  7  1
  2.225893387483e-03    7  7  7  3
  1.631400157491e-01    7  7  7  7
 -1.217435707349e-02    8  1  5  1
  1.687290245431e-02    8  1  5  3
  7.123871636755e-03    8  1  6  2
  8.935731955798e-03    8  1  6  4
 -8.649124770775e-03    8  1  7  5
  1.696369256087e-02    8  1  8  1
  1.204362659955e-02    8  2  5  2
  4.426273433201e-03    8  2  5  4
  1.229277883472e-02    8  2  6  1
  1.916867912145e-02    8  2  6  3
 -9.929907043952e-04    8  2  7  6
  1.954978041846e-02    8  2  8  2
  2.576585802746e-02    8  3  5  1
  4.929544133352e-04    8  3  5  3
  2.689422490508e-02    8  3  6  2
  6.177318809860e-03    8  3  6  4
  4.545597520157e-03    8  3  7  5
  9.936561264222e-04    8  3  8  1
  3.270960547396e-02    8  3  8  3
  1.002960952133e-02    8  4  5  2
  6.245808893379e-04    8  4  5  4
  1.010120142308e-02    8  4  6  1
  1.290091799414e-02    8  4  6  3
  5.836503628135e-03    8  4  7  6
  1.342500817045e-02    8  4  8  2
  1.691820917716e-02    8  4  8  4
 -3.272051426521e-02    8  5  1  1
  7.151991410932e-03    8  5  2  2
  3.513737545600e-02    8  5  3  1
 -1.899539081934e-03    8  5  3  3
  2.298464719766e-02    8  5  4  2
 -5.370673320511e-03    8  5  4  4
 -3.382836548427e-02    8  5  5  5
  7.126758976678e-03    8  5  6  6
 -1.563627855063e-02    8  5  7  1
  2.028474615074e-02    8  5  7  3
  5.658863567703e-03    8  5  7  7
  3.566114476368e-02    8  5  8  5
  3.993288657532e-02    8  6  2  1
  5.104012572986e-02    8  6  3  2
  3.664587644165e-03    8  6  4  1
  3.938745087959e-02    8  6  4  3
  3.895824134135e-02    8  6  6  5
 -5.011458959834e-03    8  6  7  2
  4.096097589490e-02    8  6  7  4
  5.124452761860e-02    8  6  8  6
 -1.232580545849e-02    8  7  5  1
  8.995279771558e-03    8  7  5  3
 -1.485179995637e-03    8  7  6  2
  1.115916590200e-02    8  7  6  4
  9.150342847313e-04    8  7  7  5
  9.069367289964e-03    8  7  8  1
  1.365613254533e-03    8  7  8  3
  1.406032193117e-02    8  7  8  7
  1.548352997153e-01    8  8  1  1
  1.527718987972e-01    8  8  2  2
 -2.028947890205e-03    8  8  3  1
  1.577337180517e-01    8  8  3  3
  2.821370298304e-03    8  8  4  2
  1.500337644786e-01    8  8  4  4
  1.539425940812e-01    8  8  5  5
  1.517932951973e-01    8  8  6  6
  4.160478488204e-03    8  8  7  1
 -4.714411467342e-03    8  8  7  3
  1.495779327186e-01    8  8  7  7
 -2.396180355077e-03    8  8  8  5
  1.620240318012e-01    8  8  8  8
  1.155464920242e-03    9  1  2  1
 -1.530447659440e-02    9  1  3  2
 -1.542967150486e-02    9  1  4  1
  9.898934080375e-03    9  1  4  3
  1.006839671859e-03    9  1  6  5
  1.234150080867e-02    9  1  7  2
 -4.786639634832e-03    9  1  7  4
 -1.077935815857e-02    9  1  8  6
  2.532298207181e-02    9  1  9  1
  1.552716999857e-03    9  2  1  1
 -1.817635822291e-02    9  2  2  2
 -1.877636287671e-02    9  2  3  1
 -1.940246143127e-03    9  2  3  3
  2.676786394538e-04    9  2  4  2
  9.515932361094e-03    9  2  4  4
  1.740058117567e-03    9  2  5  5
 -1.469580407058e-02    9  2  6  6
  1.941184089896e-02    9  2  7  1
  1.148064189491e-02    9  2  7  3
 -6.595573630277e-03    9  2  7  7
 -1.461902790627e-02    9  2  8  5
 -2.056819022749e-03    9  2  8  8
  2.616433451148e-02    9  2  9  2
 -2.658158375031e-02    9  3  2  1
 -3.145556837304e-03    9  3  3  2
  2.390315647172e-02    9  3  4  1
 -4.633777728615e-04    9  3  4  3
 -2.256898582957e-02    9  3  6  5
  2.351001137367e-02    9  3  7  2
  1.001014258567e-02    9  3  7  4
 -3.785261108284e-03    9  3  8  6
 -2.852189905535e-03    9  3  9  1
  3.074177499074e-02    9  3  9  3
 -4.411628360860e-02    9  4  1  1
 -6.157554765480e-03    9  4  2  2
  3.277594964853e-02    9  4  3  1
 -4.014515653083e-03    9  4  3  3
  3.296419656789e-02    9  4  4  2
 -6.829696185364e-03    9  4  4  4
 -4.024011872283e-02    9  4  5  5
 -7.250795971151e-03    9  4  6  6
 -6.199639151693e-03    9  4  7  1
  3.187608114937e-02    9  4  7  3
  8.675091069865e-03    9  4  7  7
  2.798585706847e-02    9  4  8  5
 -4.645117436935e-03    9  4  8  8
 -6.076262559644e-03    9  4  9  2
  4.110071389049e-02    9  4  9  4
  9.633379719222e-04    9  5  5  2
 -6.293111955868e-03    9  5  5  4
  8.586326509068e-04    9  5  6  1
 -5.685134747205e-03    9  5  6  3
  4.968590104872e-03    9  5  7  6
 -5.429963381340e-03    9  5  8  2
  4.106008729387e-03    9  5  8  4
  1.016858139054e-02    9  5  9  5
  9.110987053810e-04    9  6  5  1
 -6.735945031108e-03    9  6  5  3
 -6.314432441195e-03    9  6  6  2
  5.613669583400e-04    9  6  6  4
  7.290302631390e-03    9  6  7  5
 -6.571371533540e-03    9  6  8  1
 -1.934800592425e-05    9  6  8  3
  4.025903793623e-03    9  6  8  7
  9.263297415138e-03    9  6  9  6
  5.354642603027e-02    9  7  2  1
  5.194964536982e-02    9  7  3  2
 -9.884348743786e-03    9  7  4  1
  4.827599907726e-02    9  7  4  3
  4.769505469620e-02    9  7  6  5
 -8.536538909487e-03    9  7  7  2
  4.703628371164e-02    9  7  7  4
  4.672071465896e-02    9  7  8  6
 -2.409397017699e-03    9  7  9  1
 -1.181450480867e-02    9  7  9  3
  6.381980818234e-02    9  7  9  7
 -7.567328565442e-03    9  8  5  2
  7.615470117813e-03    9  8  5  4
 -7.659379319686e-03    9  8  6  1
 -7.972582379608e-05    9  8  6  3
  7.425069640077e-03    9  8  7  6
 -1.656423821738e-04    9  8  8  2
  1.009728021651e-03    9  8  8  4
 -8.865169845490e-04    9  8  9  5
  8.630327448406e-03    9  8  9  8
  1.816582975415e-01    9  9  1  1
  1.668814415414e-01    9  9  2  2
 -1.258004644214e-02    9  9  3  1
  1.619460835179e-01    9  9  3  3
 -1.779342008373e-02    9  9  4  2
  1.614736449395e-01    9  9  4  4
  1.717979991359e-01    9  9  5  5
  1.580004145204e-01    9  9  6  6
 -1.983712182287e-03    9  9  7  1
 -2.029362773924e-02    9  9  7  3
  1.600510190764e-01    9  9  7  7
 -1.139650787043e-02    9  9  8  5
  1.528596728435e-01    9  9  8  8
 -3.766524613586e-03    9  9  9  2
 -2.055061359658e-02    9  9  9  4
  1.802843860625e-01    9  9  9  9
 -1.044567758778e-02    10  1  5  2
  1.442908029417e-02    10  1  5  4
 -1.066718689181e-02    10  1  6  1
  4.715163916899e-03    10  1  6  3
  8.317483000103e-03    10  1  7  6
  4.517092593177e-03    10  1  8  2
  1.663901945747e-03    10  1  8  4
 -5.203718617811e-03    10  1  9  5
  6.968193737670e-03    10  1  9  8
  1.448584273363e-02    10  1  10  1
 -1.252868732658e-02    10  2  5  1
  9.202884823510e-03    10  2  5  3
 -1.260178585675e-03    10  2  6  2
  1.692028530666e-02    10  2  6  4
  4.721627124118e-03    10  2  7  5
  9.016125560541e-03    10  2  8  1
  7.684144683831e-03    10  2  8  3
  1.136147251776e-02    10  2  8  7
  7.573364756425e-04    10  2  9  6
  1.800418827686e-02    10  2  10  2
  1.034405168992e-02    10  3  5  2
  1.166105355424e-03    10  3  5  4
  1.045161286721e-02    10  3  6  1
  1.387111396957e-02    10  3  6  3
  5.801097712889e-03    10  3  7  6
  1.445240489636e-02    10  3  8  2
  1.734276732489e-02    10  3  8  4
  3.575784328146e-03    10  3  9  5
  1.111567188498e-03    10  3  9  8
  2.189445741749e-03    10  3  10  1
  1.792822807962e-02    10  3  10  3
  2.521100302763e-02    10  4  5  1
  1.273777746704e-03    10  4  5  3
  2.708102976932e-02    10  4  6  2
  9.285012109525e-04    10  4  6  4
  2.754051658609e-04    10  4  7  5
  2.114378025896e-03    10  4  8  1
  2.645869590104e-02    10  4  8  3
  4.425601714191e-03    10  4  8  7
  2.874573846583e-03    10  4  9  6
  1.706768779517e-03    10  4  10  2
  2.918291313095e-02    10  4  10  4
 -2.159447773762e-02    10  5  2  1
  4.847798706404e-03    10  5  3  2
  2.582260718659e-02    10  5  4  1
 -1.560360559605e-03    10  5  4  3
 -2.232225139793e-02    10  5  6  5
  1.519351527233e-02    10  5  7  2
  3.321236400865e-03    10  5  7  4
  4.611371993336e-03    10  5  8  6
 -9.786622713450e-03    10  5  9  1
  1.885466717640e-02    10  5  9  3
 -7.815156137968e-03    10  5  9  7
  2.646697570543e-02    10  5  10  5
 -3.563501172279e-02    10  6  1  1
 -7.857459775822e-03    10  6  2  2
  2.307868701215e-02    10  6  3  1
  4.184752849443e-03    10  6  3  3
  3.375384948842e-02    10  6  4  2
 -3.485666576064e-03    10  6  4  4
 -3.626325518345e-02    10  6  5  5
 -9.095891930389e-03    10  6  6  6
  4.564423161242e-03    10  6  7  1
  2.735253150392e-02    10  6  7  3
  2.560940762419e-03    10  6  7  7
  2.245852557971e-02    10  6  8  5
  8.503759523866e-03    10  6  8  8
  1.186011989597e-04    10  6  9  2
  2.759703112074e-02    10  6  9  4
 -1.518447165335e-02    10  6  9  9
  3.880150872103e-02    10  6  10  6
  1.103433853381e-02    10  7  5  2
  1.605606103193e-05    10  7  5  4
  1.126926350325e-02    10  7  6  1
  1.274496148687e-02    10  7  6  3
  2.757304353357e-04    10  7  7  6
  1.306212092217e-02    10  7  8  2
  1.167325280591e-02    10  7  8  4
 -1.121881147893e-03    10  7  9  5
  2.706630709590e-03    10  7  9  8
 -4.759746115902e-04    10  7  10  1
  1.206164255636e-02    10  7  10  3
  1.432251920876e-02    10  7  10  7
  3.521585252255e-02    10  8  2  1
  4.254696575034e-02    10  8  3  2
  4.362254359548e-04    10  8  4  1
  4.508728567868e-02    10  8  4  3
  3.433275974139e-02    10  8  6  5
  6.527821764077e-03    10  8  7  2
  3.939162059400e-02    10  8  7  4
  4.488011202407e-02    10  8  8  6
  2.413875041116e-03    10  8  9  1
 -2.145364463003e-04    10  8  9  3
  4.319030883297e-02    10  8  9  7
  4.091039960215e-03    10  8  10  5
  4.761327314692e-02    10  8  10  8
 -8.017456346775e-03    10  9  5  1
  7.986156396586e-03    10  9  5  3
  1.170112729398e-03    10  9  6  2
  7.659663360864e-03    10  9  6  4
 -1.598672121587e-03    10  9  7  5
  7.644367492868e-03    10  9  8  1
  1.627880442767e-03    10  9  8  3
  7.370930535840e-03    10  9  8  7
 -1.470322650546e-03    10  9  9  6
  7.292280815104e-03    10  9  10  2
  1.446111247197e-03    10  9  10  4
  7.781613949202e-03    10  9  10  9
  1.540133784796e-01    10  10  1  1
  1.551316664861e-01    10  10  2  2
  1.151194879022e-03    10  10  3  1
  1.509271565067e-01    10  10  3  3
 -3.292259500979e-03    10  10  4  2
  1.532070942439e-01    10  10  4  4
  1.532050886282e-01    10  10  5  5
  1.570017153124e-01    10  10  6  6
 -3.209571504581e-03    10  10  7  1
 -1.268579129469e-03    10  10  7  3
  1.488354978325e-01    10  10  7  7
  3.579602999726e-03    10  10  8  5
  1.513646487033e-01    10  10  8  8
 -7.067092167502e-04    10  10  9  2
 -4.196568144000e-03    10  10  9  4
  1.517244613681e-01    10  10  9  9
 -2.565352502285e-03    10  10  10  6
  1.571048223796e-01    10  10  10  10
 -1.084164337740e-03    11  1  5  1
  8.578912636092e-03    11  1  5  3
  8.106573953915e-03    11  1  6  2
 -6.470977130147e-03    11  1  6  4
 -1.287416280604e-02    11  1  7  5
  8.917068234669e-03    11  1  8  1
 -6.342404503478e-03    11  1  8  3
  1.747899378206e-04    11  1  8  7
 -5.974158977284e-03    11  1  9  6
 -7.413337276885e-03    11  1  10  2
  1.712333020107e-03    11  1  10  4
  1.198514182818e-03    11  1  10  9
  1.623407869588e-02    11  1  11  1
  9.298678650948e-03    11  2  5  2
 -1.002922592944e-02    11  2  5  4
  9.606322917182e-03    11  2  6  1
 -1.375879993038e-03    11  2  6  3
 -1.287520923710e-02    11  2  7  6
 -1.406764760520e-03    11  2  8  2
 -6.158712563700e-03    11  2  8  4
 -2.859897255266e-03    11  2  9  5
 -6.493793653583e-03    11  2  9  8
 -1.103062263274e-02    11  2  10  1
 -6.317495011811e-03    11  2  10  3
  5.963703612885e-04    11  2  10  7
  1.409754999679e-02    11  2  11  2
  1.228147562421e-02    11  3  5  1
 -1.136703855747e-02    11  3  5  3
 -1.245472493842e-03    11  3  6  2
 -1.109991972557e-02    11  3  6  4
  1.291113536225e-03    11  3  7  5
 -1.160818828740e-02    11  3  8  1
 -1.973884196546e-03    11  3  8  3
 -1.370047708638e-02    11  3  8  7
 -2.059587842207e-03    11  3  9  6
 -1.152447814983e-02    11  3  10  2
 -4.977258894849e-03    11  3  10  4
 -6.729830732633e-03    11  3  10  9
 -2.440210122583e-03    11  3  11  1
  1.451364475389e-02    11  3  11  3
 -1.324050362744e-02    11  4  5  2
  2.169076204906e-03    11  4  5  4
 -1.358021984958e-02    11  4  6  1
 -1.271354735145e-02    11  4  6  3
  1.580154715178e-03    11  4  7  6
 -1.317288924905e-02    11  4  8  2
 -1.142325336373e-02    11  4  8  4
  8.232298398153e-04    11  4  9  5
 -1.199565671479e-03    11  4  9  8
  2.662402838612e-03    11  4  10  1
 -1.198917190972e-02    11  4  10  3
 -1.423777858261e-02    11  4  10  7
 -2.643158159454e-03    11  4  11  2
  1.501777759020e-02    11  4  11  4
 -2.048605937360e-03    11  5  1  1
  1.324324198365e-02    11  5  2  2
  1.464062824670e-02    11  5  3  1
 -6.383186403114e-03    11  5  3  3
 -6.775882797903e-03    11  5  4  2
 -1.304203341150e-03    11  5  4  4
 -2.706675194526e-03    11  5  5  5
  1.480137334334e-02    11  5  6  6
 -1.936888806786e-02    11  5  7  1
 -2.103417655807e-03    11  5  7  3
  2.921116849882e-03    11  5  7  7
  1.636674624743e-02    11  5  8  5
 -1.111019680119e-02    11  5  8  8
 -1.300274066693e-02    11  5  9  2
  3.817477743658e-03    11  5  9  4
  1.428035338903e-03    11  5  9  9
 -1.215822472406e-02    11  5  10  6
  6.655876220664e-03    11  5  10  10
  2.834835289199e-02    11  5  11  5
  1.964634596196e-02    11  6  2  1
 -2.631300777092e-04    11  6  3  2
 -1.931300924931e-02    11  6  4  1
 -6.377106353095e-03    11  6  4  3
  2.067479683714e-02    11  6  6  5
 -2.246137254373e-02    11  6  7  2
 -3.419577632078e-03    11  6  7  4
 -1.968627098912e-03    11  6  8  6
 -2.565231293872e-03    11  6  9  1
 -1.795905394109e-02    11  6  9  3
  6.377036303298e-03    11  6  9  7
 -2.286897451673e-02    11  6  10  5
 -9.112948203261e-03    11  6  10  8
  2.648627197148e-02    11  6  11  6
 -2.586608348871e-02    11  7  5  1
  1.413390172383e-03    11  7  5  3
 -2.421854750440e-02    11  7  6  2
  1.942528280155e-03    11  7  6  4
  2.224076562060e-04    11  7  7  5
  1.141258870155e-03    11  7  8  1
 -2.335139502080e-02    11  7  8  3
  1.903495900023e-03    11  7  8  7
  1.058274194166e-03    11  7  9  6
  1.818650067967e-03    11  7  10  2
 -2.248109426422e-02    11  7  10  4
 -1.824948800614e-03    11  7  10  9
 -4.426155363333e-04    11  7  11  1
 -2.348906591672e-03    11  7  11  3
  2.308586203712e-02    11  7  11  7
  3.578515587277e-02    11  8  1  1
  3.478879994409e-03    11  8  2  2
 -2.752692357894e-02    11  8  3  1
  1.977681793889e-03    11  8  3  3
 -2.727050645251e-02    11  8  4  2
  3.929189852492e-04    11  8  4  4
  3.710365664618e-02    11  8  5  5
  2.299066551601e-03    11  8  6  6
  4.295752778419e-03    11  8  7  1
 -2.959210139815e-02    11  8  7  3
 -2.143636618374e-03    11  8  7  7
 -2.998746858281e-02    11  8  8  5
  1.814550058183e-03    11  8  8  8
  3.819060621392e-04    11  8  9  2
 -2.736020243966e-02    11  8  9  4
  1.482580555301e-02    11  8  9  9
 -2.793708537898e-02    11  8  10  6
 -3.506098407346e-03    11  8  10  10
 -6.909698950703e-03    11  8  11  5
  3.385567530941e-02    11  8  11  8
 -8.043258250391e-03    11  9  5  2
  1.627954594548e-03    11  9  5  4
 -8.071683446623e-03    11  9  6  1
 -7.591690011981e-03    11  9  6  3
  1.515938045411e-03    11  9  7  6
 -7.613209128065e-03    11  9  8  2
 -6.910314296395e-03    11  9  8  4
  2.596346890222e-04    11  9  9  5
  1.566270549137e-03    11  9  9  8
  1.472875265071e-03    11  9  10  1
 -6.761569197477e-03    11  9  10  3
 -7.019834527410e-03    11  9  10  7
 -1.206595682862e-03    11  9  11  2
  6.520175631525e-03    11  9  11  4
  6.184546003917e-03    11  9  11  9
 -4.598842861666e-02    11  10  2  1
 -4.272769264179e-02    11  10  3  2
  9.598505067848e-03    11  10  4  1
 -3.936042510806e-02    11  10  4  3
 -4.747272017950e-02    11  10  6  5
  7.540083818943e-03    11  10  7  2
 -4.095976983748e-02    11  10  7  4
 -4.330046946602e-02    11  10  8  6
  1.973319009015e-03    11  10  9  1
  6.636268083985e-03    11  10  9  3
 -4.613637533744e-02    11  10  9  7
  1.118153293416e-02    11  10  10  5
 -3.985255168184e-02    11  10  10  8
 -1.051798935311e-02    11  10  11  6
  4.978257282453e-02    11  10  11  10
  1.756675950951e-01    11  11  1  1
  1.559996515630e-01    11  11  2  2
 -1.643855175703e-02    11  11  3  1
  1.513957033260e-01    11  11  3  3
 -2.006132462535e-02    11  11  4  2
  1.507862738812e-01    11  11  4  4
  1.777928048483e-01    11  11  5  5
  1.570706758931e-01    11  11  6  6
 -4.057070363508e-04    11  11  7  1
 -2.100098222356e-02    11  11  7  3
  1.486075279272e-01    11  11  7  7
 -1.777517947977e-02    11  11  8  5
  1.525753900984e-01    11  11  8  8
 -2.101317808414e-03    11  11  9  2
 -1.871712208041e-02    11  11  9  4
  1.586702959155e-01    11  11  9  9
 -2.124842813764e-02    11  11  10  6
  1.526199293607e-01    11  11  10  10
  1.815708802822e-04    11  11  11  5
  2.192237651807e-02    11  11  11  8
  1.697832050647e-01    11  11  11  11
  3.528013181718e-04    12  1  1  1
  1.169439893681e-03    12  1  2  2
  9.615268674863e-04    12  1  3  1
 -6.435030712927e-03    12  1  3  3
 -6.527023083860e-03    12  1  4  2
  4.259555553726e-03    12  1  4  4
 -2.215448582362e-05    12  1  5  5
  4.083047684015e-03    12  1  6  6
 -5.412566231671e-03    12  1  7  1
  3.652403355513e-03    12  1  7  3
 -1.271243156667e-03    12  1  7  7
  4.345081910189e-03    12  1  8  5
 -1.031810005825e-02    12  1  8  8
  3.630316083461e-03    12  1  9  2
 -1.085501553061e-03    12  1  9  4
 -3.748169066133e-04    12  1  9  9
 -1.095181284405e-02    12  1  10  6
  5.155487739161e-03    12  1  10  10
  1.599398278728e-02    12  1  11  5
 -4.524790478426e-03    12  1  11  8
 -2.982831035509e-04    12  1  11  11
  1.523662985719e-02    12  1  12  1
  1.901018301387e-03    12  2  2  1
 -9.124599097433e-03    12  2  3  2
 -9.935582907391e-03    12  2  4  1
  1.469184279797e-03    12  2  4  3
  4.496648420756e-03    12  2  6  5
  2.735648304505e-03    12  2  7  2
  2.336559705776e-03    12  2  7  4
 -8.827317894104e-03    12  2  8  6
  1.010898991161e-02    12  2  9  1
  2.423224660303e-03    12  2  9  3
 -1.163001387991e-03    12  2  9  7
 -1.251416160262e-02    12  2  10  5
 -4.956935902116e-03    12  2  10  8
  8.938971240335e-03    12  2  11  6
 -4.602060293619e-03    12  2  11  10
  1.438445998998e-02    12  2  12  2
  2.368272427826e-03    12  3  1  1
 -1.239612423049e-02    12  3  2  2
 -1.357885409667e-02    12  3  3  1
 -1.908399967549e-03    12  3  3  3
 -1.152347420367e-03    12  3  4  2
  2.419844273714e-03    12  3  4  4
  5.214491442093e-03    12  3  5  5
 -1.213783599161e-02    12  3  6  6
  1.191998728605e-02    12  3  7  1
  3.431716795541e-03    12  3  7  3
 -1.742544588883e-04    12  3  7  7
 -1.550664009844e-02    12  3  8  5
 -2.804615463221e-03    12  3  8  8
  1.317159388047e-02    12  3  9  2
 -3.034537256474e-04    12  3  9  4
 -2.597275770261e-03    12  3  9  9
 -4.684350562226e-03    12  3  10  6
 -5.770366135205e-03    12  3  10  10
 -1.136297266109e-02    12  3  11  5
  9.711727374394e-03    12  3  11  8
  4.135494786784e-03    12  3  11  11
 -1.929150606907e-03    12  3  12  1
  1.571866535487e-02    12  3  12  3
 -1.895165770252e-02    12  4  2  1
 -2.662607633091e-03    12  4  3  2
  1.634715011429e-02    12  4  4  1
 -8.279429053716e-04    12  4  4  3
 -2.058512242712e-02    12  4  6  5
  1.520417056406e-02    12  4  7  2
  3.866745814964e-03    12  4  7  4
 -6.216588190457e-03    12  4  8  6
 -1.904865051194e-03    12  4  9  1
  1.719537692061e-02    12  4  9  3
 -3.744429212510e-03    12  4  9  7
  1.544973242290e-02    12  4  10  5
 -3.630448966359e-03    12  4  10  8
 -1.516190401130e-02    12  4  11  6
  1.309368796220e-02    12  4  11  10
 -2.615743626599e-03    12  4  12  2
  1.813665526756e-02    12  4  12  4
 -4.076063998985e-04    12  5  5  1
  4.862195521100e-03    12  5  5  3
  4.760164498986e-03    12  5  6  2
 -7.939368388939e-03    12  5  6  4
 -1.004905287763e-02    12  5  7  5
  5.419339611732e-03    12  5  8  1
 -8.150172962056e-03    12  5  8  3
  3.327557056733e-03    12  5  8  7
  2.679450833160e-04    12  5  9  6
 -8.973253699332e-03    12  5  10  2
  4.401826269559e-03    12  5  10  4
  1.069786253910e-04    12  5  10  9
  1.537691733269e-02    12  5  11  1
 -4.502278411667e-03    12  5  11  3
  3.680572121089e-04    12  5  11  7
  1.980488430058e-02    12  5  12  5
  5.755668427813e-03    12  6  5  2
 -1.090245364052e-02    12  6  5  4
  5.971847064891e-03    12  6  6  1
 -6.358367180996e-03    12  6  6  3
 -5.231469122788e-03    12  6  7  6
 -6.277260368279e-03    12  6  8  2
 -3.223491086175e-03    12  6  8  4
  4.002878256268e-03    12  6  9  5
 -5.853511486905e-04    12  6  9  8
 -1.193303983932e-02    12  6  10  1
 -3.809433823958e-03    12  6  10  3
  2.983212011025e-03    12  6  10  7
  9.570148887204e-03    12  6  11  2
 -4.323612447502e-03    12  6  11  4
 -1.912599093129e-04    12  6  11  9
  1.571135189589e-02    12  6  12  6
 -2.321160524901e-02    12  7  1  1
  8.288132226543e-04    12  7  2  2
  2.047077912645e-02    12  7  3  1
  2.697927743502e-03    12  7  3  3
  2.065105354273e-02    12  7  4  2
  1.744262699782e-03    12  7  4  4
 -2.700090791866e-02    12  7  5  5
 -4.687607488361e-03    12  7  6  6
 -3.523496420625e-03    12  7  7  1
  1.978566060320e-02    12  7  7  3
  1.019764151145e-02    12  7  7  7
  1.917901446138e-02    12  7  8  5
 -2.969790575951e-03    12  7  8  8
 -3.083346093587e-03    12  7  9  2
  2.273618638234e-02    12  7  9  4
 -1.232655771440e-03    12  7  9  9
  1.943250445007e-02    12  7  10  6
 -3.204027822914e-03    12  7  10  10
  2.356365355343e-03    12  7  11  5
 -1.993864452693e-02    12  7  11  8
 -1.751483372297e-02    12  7  11  11
 -3.826453724796e-04    12  7  12  1
 -3.329198504938e-03    12  7  12  3
  2.206461402868e-02    12  7  12  7
  8.254783760864e-03    12  8  5  1
 -1.333607926607e-02    12  8  5  3
 -7.167519916570e-03    12  8  6  2
 -6.257303172291e-03    12  8  6  4
  7.145870764809e-03    12  8  7  5
 -1.385109491483e-02    12  8  8  1
 -1.593124249004e-03    12  8  8  3
 -6.253470385711e-03    12  8  8  7
  5.059586805549e-03    12  8  9  6
 -7.060322943908e-03    12  8  10  2
 -2.549334833727e-03    12  8  10  4
 -2.023501742244e-03    12  8  10  9
 -7.653816362182e-03    12  8  11  1
  1.003319780323e-02    12  8  11  3
 -3.747213447660e-03    12  8  11  7
 -5.203885473861e-03    12  8  12  5
  1.680722250414e-02    12  8  12  8
  2.813689876279e-02    12  9  2  1
  2.821276444643e-02    12  9  3  2
 -4.418452921920e-03    12  9  4  1
  2.624827357202e-02    12  9  4  3
  2.474798969362e-02    12  9  6  5
 -3.769433469714e-03    12  9  7  2
  2.577075703544e-02    12  9  7  4
  2.507906262371e-02    12  9  8  6
 -1.436202796843e-03    12  9  9  1
 -5.384076590260e-03    12  9  9  3
  3.393704240140e-02    12  9  9  7
 -3.336575123477e-03    12  9  10  5
  2.330473104196e-02    12  9  10  8
  2.585155312265e-03    12  9  11  6
 -2.441317514064e-02    12  9  11  10
 -7.652500349024e-04    12  9  12  2
 -1.758763623028e-03    12  9  12  4
  1.949702176792e-02    12  9  12  9
 -1.689896023795e-02    12  10  5  2
  9.584914748545e-03    12  10  5  4
 -1.741053668654e-02    12  10  6  1
 -8.301822174694e-03    12  10  6  3
  8.398650389610e-03    12  10  7  6
 -8.976204553075e-03    12  10  8  2
 -6.417539422116e-03    12  10  8  4
 -4.136391242008e-04    12  10  9  5
  5.904378968498e-03    12  10  9  8
  9.724410093198e-03    12  10  10  1
 -7.202522514764e-03    12  10  10  3
 -8.255851574831e-03    12  10  10  7
 -9.302217343529e-03    12  10  11  2
  1.157043230566e-02    12  10  11  4
  3.133181015347e-03    12  10  11  9
 -6.629466119634e-03    12  10  12  6
  1.974250817978e-02    12  10  12  10
  3.384106922055e-02    12  11  5  1
 -1.113164968436e-02    12  11  5  3
  2.088207174658e-02    12  11  6  2
 -1.161324512315e-02    12  11  6  4
  1.274600168586e-03    12  11  7  5
 -1.067328964974e-02    12  11  8  1
  1.908509809005e-02    12  11  8  3
 -1.090690034637e-02    12  11  8  7
  3.533766434391e-04    12  11  9  6
 -1.148780770585e-02    12  11  10  2
  1.879297743930e-02    12  11  10  4
 -6.061160129705e-03    12  11  10  9
 -5.806850374906e-04    12  11  11  1
  1.133746063080e-02    12  11  11  3
 -2.096428207996e-02    12  11  11  7
 -2.716597135176e-04    12  11  12  5
  8.745072984394e-03    12  11  12  8
  3.528443509354e-02    12  11  12  11
  1.762707094281e-01    12  12  1  1
  1.581045395601e-01    12  12  2  2
 -1.518200829809e-02    12  12  3  1
  1.535866253852e-01    12  12  3  3
 -1.886977152188e-02    12  12  4  2
  1.529260260570e-01    12  12  4  4
  1.778745763812e-01    12  12  5  5
  1.582275249151e-01    12  12  6  6
 -6.135950864571e-04    12  12  7  1
 -1.994176270394e-02    12  12  7  3
  1.506708698195e-01    12  12  7  7
 -1.682891341912e-02    12  12  8  5
  1.537569146481e-01    12  12  8  8
 -2.248602149444e-03    12  12  9  2
 -1.806866475385e-02    12  12  9  4
  1.610327734843e-01    12  12  9  9
 -2.029318844004e-02    12  12  10  6
  1.537682944106e-01    12  12  10  10
  3.260389831892e-04    12  12  11  5
  2.079807745154e-02    12  12  11  8
  1.694785549977e-01    12  12  11  11
 -2.730421494198e-04    12  12  12  1
  3.231973688594e-03    12  12  12  3
 -1.535885028967e-02    12  12  12  7
  1.715144762301e-01    12  12  12  12
  9.083818693014e-04    13  1  2  1
 -6.515908185462e-04    13  1  3  2
 -2.030725265618e-03    13  1  4  1
  5.718449540622e-03    13  1  4  3
 -1.937076362912e-03    13  1  6  5
  4.329361251825e-03    13  1  7  2
 -4.449436475502e-03    13  1  7  4
  1.847194613025e-03    13  1  8  6
  7.084858407007e-03    13  1  9  1
 -5.129365674334e-03    13  1  9  3